# t (s)	mx ()	my ()	mz ()	B_extx (T)	B_exty (T)	B_extz (T)	m_fullx (A/m)	m_fully (A/m)	m_fullz (A/m)	m_full.region1x (A/m)	m_full.region1y (A/m)	m_full.region1z (A/m)	m_full.region2x (A/m)	m_full.region2y (A/m)	m_full.region2z (A/m)
0	0.62930304	0.6293009	-7.260809e-10	0.0707108	0.07071081	0	98217.88	98217.55	-0.00011574074	664522.56	216498.86	-0.0008790144	216501.58	664522.3	-0.00016957364
0	0.6291824	0.62918025	-3.6304046e-10	0.07056912	0.07056912	0	98199.07	98198.72	-5.478395e-05	664604.1	216248.5	-0.00026647287	216251.34	664603.8	-0.00024570874
0	0.629058	0.62905574	-3.4653863e-10	0.070427895	0.070427895	0	98179.64	98179.29	-5.169753e-05	664688.1	215990.2	-0.0003538552	215993.02	664687.8	-0.00011420266
0	0.6289334	0.6289313	-1.650184e-10	0.070286475	0.070286475	0	98160.22	98159.875	-2.7777778e-05	664771.9	215732.16	-0.00016265227	215734.98	664771.75	-5.8831673e-05
0	0.62880844	0.6288063	-1.1221251e-10	0.07014494	0.07014494	0	98140.7	98140.36	-1.697531e-05	664856	215473.08	-4.3258584e-05	215475.89	664855.7	-0.00012112403
0	0.62868345	0.62868124	-1.3201472e-10	0.07000352	0.07000352	0	98121.19	98120.84	-1.9290124e-05	664939.8	215214.12	-8.348907e-05	215216.95	664939.56	-8.3056475e-05
0	0.6285579	0.62855566	-3.0693423e-10	0.06986228	0.069862284	0	98101.586	98101.25	-4.9768518e-05	665023.9	214954.27	-0.00027555716	214957.1	665023.6	-0.00018687708
0	0.6284324	0.62843025	-1.9142134e-10	0.06972061	0.06972061	0	98082.01	98081.664	-3.0478395e-05	665107.8	214694.77	-0.00011809593	214697.6	665107.5	-0.00013496677
0	0.62830627	0.628304	-1.4521619e-10	0.06957921	0.06957921	0	98062.31	98061.97	-2.507716e-05	665191.9	214433.92	-5.1477713e-05	214436.75	665191.6	-0.00017649501
0	0.6281801	0.6281779	-2.8383165e-10	0.06943796	0.06943796	0	98042.625	98042.29	-4.3981483e-05	665275.9	214173.45	-0.00027339425	214176.28	665275.6	-0.00015227021
0	0.6280534	0.62805116	-3.168353e-10	0.06929652	0.06929652	0	98022.84	98022.516	-4.822531e-05	665360.06	213911.8	-0.00018687708	213914.62	665359.8	-0.00025955148
0	0.6279268	0.62792456	-2.4422722e-10	0.069155015	0.06915502	0	98003.086	98002.75	-3.9351853e-05	665444	213650.6	-0.00025695597	213653.4	665443.9	-8.651717e-05
0	0.6277999	0.6277977	-1.6831876e-10	0.0690136	0.0690136	0	97983.3	97982.96	-2.6234567e-05	665527.94	213389.22	-0.00016092193	213392.06	665527.6	-0.000103820596
0	0.6276725	0.6276702	-4.5545076e-10	0.06887218	0.06887218	0	97963.4	97963.055	-7.1759256e-05	665612.1	213126.48	-0.00030454042	213129.3	665611.94	-0.0003599114
0	0.627545	0.6275428	-3.9604414e-10	0.0687307	0.0687307	0	97943.5	97943.16	-6.0570987e-05	665696.2	212863.97	-0.00031275954	212866.81	665695.9	-0.00025263013
0	0.6274171	0.6274148	-4.6865223e-10	0.06858928	0.06858928	0	97923.52	97923.19	-7.214506e-05	665780.44	212600.69	-0.00019033776	212603.52	665780	-0.00044988925
0	0.62728924	0.6272871	-3.49839e-10	0.06844799	0.06844799	0	97903.59	97903.26	-5.748457e-05	665864.2	212337.97	-0.00036510243	212340.78	665864	-0.00015919158
0	0.62716067	0.6271585	-1.3861545e-10	0.06830659	0.06830659	0	97883.53	97883.19	-1.8518518e-05	665948.4	212073.75	-0.00016351744	212076.55	665948.1	-1.7303433e-05
0	0.62703216	0.6270299	-1.7161914e-10	0.06816509	0.068165086	0	97863.47	97863.11	-2.6234567e-05	666032.4	211809.7	-0.00013453419	211812.55	666032.2	-0.0001315061
0	0.6269031	0.626901	-6.171688e-10	0.06802368	0.06802368	0	97843.33	97842.98	-9.1435184e-05	666116.6	211544.88	-0.00046070392	211547.72	666116.44	-0.00039105758
0	0.6267741	0.6267719	-1.023114e-10	0.06788226	0.06788226	0	97823.19	97822.84	-1.50462965e-05	666200.7	211280.27	-0.00015919158	211283.1	666200.44	5.1910298e-05
0	0.62664455	0.62664235	-4.1584636e-10	0.06774077	0.067740776	0	97802.98	97802.62	-6.558642e-05	666284.8	211014.73	-0.00032876522	211017.55	666284.6	-0.0002560908
0	0.62651485	0.6265127	-3.2343606e-10	0.06759932	0.06759932	0	97782.734	97782.39	-5.131173e-05	666368.94	210749.05	-0.00023446152	210751.86	666368.75	-0.00023532669
0	0.626385	0.62638277	-2.1122355e-10	0.067458086	0.067458086	0	97762.45	97762.11	-3.5493827e-05	666453.1	210483	-0.00019423103	210485.84	666452.8	-0.00011420266
0	0.6262548	0.62625265	-3.168353e-10	0.06731665	0.06731665	0	97742.14	97741.805	-4.6296296e-05	666537.06	210216.88	-0.00018687708	210219.7	666536.9	-0.0002630122
0	0.6261243	0.6261221	-1.3861545e-10	0.067175	0.067175	0	97721.78	97721.43	-2.0061729e-05	666621.25	209950.02	-7.959579e-05	209952.84	666621	-0.000103820596
0	0.62599355	0.6259914	-1.4521619e-10	0.06703376	0.06703376	0	97701.38	97701.03	-2.3919752e-05	666705.4	209682.86	-0.00013453419	209685.72	666705.06	-5.1910298e-05
0	0.62586236	0.6258603	-2.6402944e-10	0.06689233	0.06689233	0	97680.9	97680.56	-4.1666666e-05	666789.56	209415.03	-0.00022407946	209417.84	666789.25	-0.0001557309
0	0.62573105	0.6257289	-2.9703312e-10	0.06675082	0.06675082	0	97660.4	97660.055	-5.0540122e-05	666873.7	209146.89	-0.00016092193	209149.72	666873.5	-0.0003114618
0	0.6255997	0.62559754	-8.580957e-11	0.0666094	0.0666094	0	97639.88	97639.55	-1.4660493e-05	666957.8	208878.92	1.2544989e-05	208881.75	666957.44	-0.00015227021
0	0.6254678	0.6254656	-2.1782429e-10	0.06646816	0.06646815	0	97619.3	97618.95	-3.5879628e-05	667041.9	208610.12	-0.00020245016	208612.95	667041.6	-0.000117663345
0	0.6253355	0.6253333	-2.5412833e-10	0.0663265	0.0663265	0	97598.66	97598.33	-3.8194445e-05	667126.06	208340.83	-0.00015227021	208343.62	667125.8	-0.00020764119
0	0.6252032	0.62520105	-2.046228e-10	0.06618508	0.06618509	0	97578.01	97577.68	-2.9320987e-05	667210.2	208071.52	-0.00013539936	208074.31	667210	-0.00013842747
0	0.6250702	0.625068	-7.920883e-11	0.06604384	0.06604384	0	97557.25	97556.914	-1.4660493e-05	667294.56	207801	-0.00013972522	207803.8	667294.3	1.3842747e-05
0	0.6249373	0.6249351	-2.87132e-10	0.06590237	0.06590237	0	97536.516	97536.17	-4.3981483e-05	667378.6	207530.78	-0.00015183762	207533.6	667378.44	-0.00024916945
0	0.62480396	0.6248019	-1.05611776e-10	0.0657609	0.06576091	0	97515.71	97515.36	-1.8518518e-05	667462.75	207259.98	-9.214078e-05	207262.8	667462.56	-4.4988927e-05
0	0.6246705	0.6246683	-2.2772538e-10	0.06561947	0.06561947	0	97494.86	97494.52	-3.6265432e-05	667546.94	206988.84	-9.430371e-05	206991.66	667546.75	-0.00022494463
0	0.62453675	0.6245346	-2.5082797e-10	0.06547823	0.06547823	0	97473.984	97473.66	-4.1280866e-05	667631.06	206717.48	-0.0002565234	206720.31	667630.94	-0.00010035991
0	0.62440246	0.62440044	-3.49839e-10	0.065336585	0.065336585	0	97453.05	97452.71	-5.3626543e-05	667715.25	206445.45	-0.00019077036	206448.25	667715.06	-0.0003114618
0	0.6242681	0.62426597	-2.046228e-10	0.06519516	0.06519516	0	97432.07	97431.73	-3.5879628e-05	667799.5	206173.1	-0.00018384897	206175.9	667799.2	-0.000117663345
0	0.62413377	0.6241316	-9.571067e-11	0.06505392	0.06505392	0	97411.09	97410.76	-1.3888889e-05	667883.44	205900.98	-0.00012977574	205903.81	667883.25	1.0382059e-05
0	0.62399834	0.6239962	-2.3432611e-10	0.06491244	0.06491244	0	97389.97	97389.63	-3.9351853e-05	667967.9	205627.05	-0.0001738995	205629.88	667967.7	-0.0001557309
0	0.62386304	0.62386096	-2.376265e-10	0.06477098	0.06477099	0	97368.84	97368.516	-4.0123457e-05	668052.1	205353.38	-0.0002288379	205356.19	668051.94	-0.000110741974
0	0.6237279	0.62372583	-1.5841765e-10	0.06462956	0.06462956	0	97347.75	97347.42	-2.5848765e-05	668135.94	205080.2	-0.00020937154	205083.03	668135.9	-2.0764119e-05
0	0.6235916	0.62358946	-1.5181692e-10	0.06448813	0.06448813	0	97326.484	97326.14	-2.1604938e-05	668220.56	204804.92	-7.051149e-05	204807.72	668220.3	-0.0001557309
0	0.62345576	0.6234536	-2.0132244e-10	0.06434667	0.06434667	0	97305.28	97304.95	-3.125e-05	668304.5	204530.81	-0.00014880953	204533.6	668304.3	-0.00013842747
0	0.62331927	0.6233172	-5.6106253e-10	0.064205244	0.064205244	0	97283.984	97283.65	-8.487654e-05	668388.7	204255.55	-0.00033136073	204258.36	668388.56	-0.00045681064
0	0.62318283	0.62318075	-2.1782429e-10	0.064063944	0.06406396	0	97262.695	97262.35	-3.279321e-05	668472.7	203980.48	-2.0764119e-05	203983.31	668472.5	-0.00031838316
0	0.6230456	0.62304354	-3.168353e-10	0.06392251	0.06392251	0	97241.27	97240.945	-4.5910492e-05	668557	203704.1	-0.00015443315	203706.9	668556.8	-0.000287237
0	0.62290835	0.62290615	-5.11557e-10	0.06378107	0.06378107	0	97219.84	97219.5	-8.1018516e-05	668641.2	203427.58	-0.00048449612	203430.39	668641.1	-0.00023532669
0	0.62277097	0.6227688	-4.620515e-10	0.06363963	0.06363963	0	97198.41	97198.07	-7.1373455e-05	668725.3	203151.2	-0.00042609705	203153.98	668725.2	-0.000231866
0	0.6226332	0.6226311	-5.346596e-10	0.0634982	0.0634982	0	97176.9	97176.56	-8.0246915e-05	668809.4	202874.23	-0.00032876522	202877.05	668809.25	-0.00042912512
0	0.62249494	0.62249273	-1.848206e-10	0.06335675	0.06335676	0	97155.33	97154.98	-3.2021606e-05	668893.7	202596.33	-0.00020764119	202599.14	668893.5	-5.8831673e-05
0	0.6223564	0.62235427	-4.3564857e-10	0.06321528	0.063215286	0	97133.695	97133.375	-6.712963e-05	668977.9	202318.22	-0.00035515297	202321.03	668977.75	-0.00027339425
0	0.62221795	0.6222157	-3.300368e-10	0.06307402	0.06307402	0	97112.08	97111.75	-4.7453705e-05	669061.94	202040.27	-0.00031924833	202043.05	669061.75	-0.00013842747
0	0.6220788	0.6220766	-2.2442502e-10	0.06293259	0.06293259	0	97090.37	97090.04	-3.4722223e-05	669146.1	201761.33	-0.00013323643	201764.12	669145.94	-0.00019033776
0	0.6219395	0.6219374	-2.1452391e-10	0.06279097	0.062790975	0	97068.625	97068.3	-3.5493827e-05	669230.3	201482.22	-0.00012242178	201485	669230.1	-0.00017303434
0	0.62179995	0.6217978	-8.580957e-11	0.06264971	0.06264971	0	97046.85	97046.51	-9.259259e-06	669314.4	201202.7	-0.00010252284	201205.5	669314.1	1.3842747e-05
0	0.62165993	0.6216577	-3.8284267e-10	0.06250826	0.06250826	0	97024.984	97024.664	-5.7098765e-05	669398.6	200922.47	-0.0003330911	200925.28	669398.44	-0.00021802326
0	0.6215198	0.62151766	-4.6865223e-10	0.062366802	0.062366802	0	97003.125	97002.8	-7.2530864e-05	669482.75	200642.22	-0.0003633721	200645	669482.44	-0.00032530454
0	0.621379	0.621377	-4.224471e-10	0.062225346	0.062225346	0	96981.17	96980.836	-6.25e-05	669566.94	200360.94	-0.00022710756	200363.75	669566.75	-0.0003633721
0	0.62123847	0.6212363	-2.8383165e-10	0.062084105	0.062084105	0	96959.22	96958.88	-4.552469e-05	669651.06	200079.98	-0.00025738857	200082.77	669650.9	-0.00013842747
0	0.6210974	0.6210952	-6.600736e-11	0.061942484	0.061942484	0	96937.195	96936.87	-1.290027e-05	669735.2	199798.38	-0.00016265227	199801.19	669735	8.651717e-05
0	0.6209561	0.620954	-1.3201472e-11	0.06180104	0.061801035	0	96915.16	96914.82	-7.7160496e-07	669819.1	199516.56	3.8067552e-05	199519.38	669819.06	-4.4988927e-05
0	0.6208142	0.62081206	-2.9703312e-10	0.061659794	0.061659794	0	96892.99	96892.67	-4.70679e-05	669903.44	199233.6	-0.00022537721	199236.39	669903.4	-0.00019379845
0	0.6206722	0.6206701	-2.772309e-10	0.0615183	0.0615183	0	96870.84	96870.51	-4.70679e-05	669987.56	198950.75	-0.00019769173	198953.56	669987.44	-0.00022840532
0	0.6205299	0.6205278	-1.9142134e-10	0.06137688	0.061376873	0	96848.63	96848.3	-2.7391976e-05	670071.6	198667.38	-0.00016438261	198670.17	670071.44	-0.000103820596
0	0.6203874	0.6203853	-4.3894893e-10	0.061235435	0.061235435	0	96826.39	96826.055	-6.790124e-05	670155.75	198383.86	-0.00021542775	198386.66	670155.56	-0.00040143964
0	0.6202444	0.62024236	-1.5841765e-10	0.06109399	0.061093986	0	96804.07	96803.75	-2.5848765e-05	670239.8	198099.58	-0.00011117456	198102.38	670239.6	-0.00012112403
0	0.62010115	0.620099	-1.3201472e-10	0.06095258	0.060952578	0	96781.72	96781.38	-2.3148148e-05	670323.9	197814.94	-0.00011723076	197817.73	670323.75	-5.1910298e-05
0	0.6199577	0.6199556	-4.4885004e-10	0.06081112	0.06081112	0	96759.31	96758.99	-6.597222e-05	670407.94	197529.95	-0.00032184387	197532.78	670407.9	-0.00030454042
0	0.61981404	0.61981195	-3.9604414e-10	0.06066982	0.06066982	0	96736.9	96736.57	-6.1342595e-05	670491.94	197244.92	-0.00020591085	197247.73	670491.8	-0.00038413622
0	0.61966944	0.61966735	-2.7393054e-10	0.06052838	0.060528375	0	96714.34	96714.01	-3.9737653e-05	670576.3	196958.23	-0.00020980413	196961.02	670576.1	-0.00018341638
0	0.61952555	0.61952347	-2.0792318e-10	0.060386952	0.060386952	0	96691.875	96691.56	-3.125e-05	670660	196673.03	-0.00016611295	196675.84	670659.8	-0.00010728128
0	0.6193806	0.6193785	-4.75253e-10	0.06024551	0.06024551	0	96669.25	96668.93	-7.83179e-05	670744.1	196385.88	-0.00036120915	196388.67	670744	-0.0003356866
0	0.6192358	0.6192336	-5.9406625e-11	0.060104065	0.060104065	0	96646.64	96646.32	-1.0416667e-05	670828.06	196099.16	-5.1910298e-05	196101.97	670827.94	-3.4606866e-05
0	0.6190902	0.6190882	-3.597401e-10	0.05996265	0.059962656	0	96623.94	96623.6	-5.285494e-05	670912.2	195811.3	-0.0002409503	195814.08	670912.1	-0.00024916945
0	0.6189445	0.6189423	-3.696412e-10	0.059821155	0.059821155	0	96601.18	96600.85	-5.748457e-05	670996.2	195523.19	-0.00017909054	195525.98	670996.1	-0.00035299003
0	0.6187985	0.61879635	-3.6304046e-10	0.059679903	0.059679903	0	96578.41	96578.08	-5.9027778e-05	671080.25	195234.83	-0.0002439784	195237.62	671080.2	-0.00027685493
0	0.6186522	0.61865014	-1.7821987e-10	0.059538443	0.059538443	0	96555.58	96555.26	-2.662037e-05	671164.25	194946.06	-0.00011117456	194948.86	671164.1	-0.00013842747
0	0.6185058	0.6185037	-2.2772538e-10	0.059396844	0.059396844	0	96532.72	96532.4	-3.125e-05	671248.1	194657.22	-8.0460966e-05	194660.02	671248	-0.00022494463
0	0.6183589	0.61835676	4.620515e-11	0.059255593	0.05925559	0	96509.8	96509.47	4.6296295e-06	671332	194367.62	3.9797895e-05	194370.39	671331.94	2.7685493e-05
0	0.6182116	0.61820966	-3.102346e-10	0.059114125	0.059114132	0	96486.82	96486.49	-4.4367283e-05	671416	194077.53	-0.00019033776	194080.31	671415.94	-0.00021456256
0	0.6180639	0.6180619	-9.571067e-11	0.058972694	0.058972687	0	96463.76	96463.44	-1.6203703e-05	671500	193786.73	-9.9927325e-05	193789.48	671499.94	-6.921373e-05
0	0.61791605	0.6179139	-3.49839e-10	0.058831237	0.058831237	0	96440.664	96440.336	-5.5555556e-05	671584.06	193495.53	-0.0001678433	193498.3	671583.94	-0.00034260796
0	0.6177678	0.6177658	-3.9604414e-10	0.058689967	0.058689967	0	96417.54	96417.21	-6.1728395e-05	671667.94	193204.12	-0.00026647287	193206.88	671667.9	-0.00029069767
0	0.6176194	0.6176173	-3.1353495e-10	0.058548383	0.058548383	0	96394.375	96394.04	-5.131173e-05	671751.9	192912.47	-0.0002967539	192915.25	671751.75	-0.00017303434
0	0.61747056	0.6174685	-2.8383165e-10	0.058406927	0.05840693	0	96371.14	96370.82	-4.7839505e-05	671835.75	192620.22	-0.00028204595	192622.98	671835.7	-0.00014880953
0	0.61732143	0.6173194	-1.5841765e-10	0.05826566	0.05826566	0	96347.87	96347.55	-2.5462963e-05	671919.7	192327.58	-0.00017303434	192330.38	671919.56	-4.8449612e-05
0	0.61717206	0.61717	-3.7294157e-10	0.058124155	0.058124155	0	96324.56	96324.23	-5.5169752e-05	672003.44	192034.64	-0.00032184387	192037.42	672003.4	-0.00016957364
0	0.6170222	0.6170202	-5.148574e-10	0.057982773	0.057982776	0	96301.18	96300.85	-7.947531e-05	672087.3	191741	-0.0003564507	191743.77	672087.25	-0.00034606867
0	0.61687183	0.61686975	-2.6402944e-10	0.05784131	0.05784131	0	96277.7	96277.38	-4.2824075e-05	672171.4	191446.45	-0.00017260175	191449.23	672171.3	-0.00018687708
0	0.61672205	0.6167199	-2.2112465e-10	0.057699844	0.05769985	0	96254.31	96253.99	-3.2407406e-05	672254.9	191153.14	-0.00017476467	191155.94	672254.75	-0.0001280454
0	0.61657107	0.616569	-3.4653863e-10	0.057558466	0.057558466	0	96230.76	96230.44	-5.2083335e-05	672338.8	190858	-0.00020418051	190860.73	672338.7	-0.00025955148
0	0.61642003	0.61641806	-4.224471e-10	0.057416998	0.057416998	0	96207.18	96206.88	-6.520062e-05	672422.5	190562.83	-0.0002686358	190565.61	672422.4	-0.00034606867
0	0.61626846	0.61626637	0	0.057275694	0.057275694	0	96183.52	96183.21	3.8580248e-07	672506.4	190266.64	-3.4606867e-06	190269.4	672506.25	2.4224806e-05
0	0.61611676	0.61611474	-1.7821987e-10	0.057134222	0.057134222	0	96159.87	96159.54	-2.7777778e-05	672590.1	189970.64	-0.000292428	189973.4	672590.06	3.8067552e-05
0	0.6159648	0.6159628	-3.8284267e-10	0.056992855	0.05699285	0	96136.14	96135.836	-6.0185186e-05	672673.75	189674.17	-0.0002993494	189676.92	672673.8	-0.00024916945
0	0.61581236	0.61581033	-4.0594525e-10	0.056851387	0.056851387	0	96112.33	96112.02	-5.9027778e-05	672757.7	189376.84	-0.00026950098	189379.6	672757.56	-0.0003114618
0	0.6156598	0.61565775	-2.1122355e-10	0.05670992	0.05670991	0	96088.53	96088.22	-3.2407406e-05	672841.25	189079.73	-0.00013237126	189082.5	672841.2	-0.00017303434
0	0.61550653	0.61550456	-1.0891214e-10	0.05656855	0.05656855	0	96064.62	96064.3	-1.8132716e-05	672925.06	188781.34	-0.00010555094	188784.11	672925	-3.4606866e-05
0	0.61535376	0.61535174	-1.9142134e-10	0.056427028	0.056427028	0	96040.76	96040.445	-3.0092593e-05	673008.44	188483.98	-0.0001617871	188486.72	673008.44	-0.00011420266
0	0.6151998	0.61519784	-1.9802207e-11	0.056285765	0.056285765	0	96016.74	96016.44	-1.9290123e-06	673092.2	188184.84	-3.201135e-05	188187.61	673092.2	6.9213734e-06
0	0.6150457	0.6150436	-3.168353e-10	0.05614429	0.05614429	0	95992.67	95992.37	-5.2469135e-05	673175.9	187885.25	-0.00033957988	187888	673175.9	-0.00013842747
0	0.6148914	0.6148893	-2.0132244e-10	0.056002725	0.056002725	0	95968.59	95968.28	-3.2407406e-05	673259.5	187585.61	-0.00010468577	187588.36	673259.5	-0.00020418051
0	0.6147369	0.61473495	-1.848206e-10	0.055861462	0.055861466	0	95944.49	95944.18	-2.8935185e-05	673342.94	187286	-0.00013669713	187288.75	673342.9	-0.00014880953
0	0.6145817	0.61457974	-2.0132244e-10	0.05571998	0.055719987	0	95920.266	95919.95	-3.395062e-05	673426.7	186984.92	-5.6236157e-05	186987.67	673426.6	-0.00024916945
0	0.6144261	0.61442417	-4.620515e-10	0.055578638	0.055578638	0	95895.984	95895.68	-7.214506e-05	673510.4	186683.48	-0.0002751246	186686.23	673510.4	-0.00038413622
0	0.614271	0.6142691	-1.2541398e-10	0.055437114	0.055437114	0	95871.78	95871.46	-2.0447531e-05	673593.7	186383.05	-8.997785e-05	186385.8	673593.5	-0.00010728128
0	0.61411464	0.61411256	-2.2112465e-10	0.055295844	0.05529584	0	95847.37	95847.055	-3.317901e-05	673677.3	186080.39	-0.00024527617	186083.12	673677.25	-6.229236e-05
0	0.61395824	0.6139563	-2.3102575e-10	0.05515437	0.05515437	0	95822.97	95822.66	-3.6265432e-05	673760.8	185778.03	-0.00021932101	185780.77	673760.8	-0.000117663345
0	0.61380154	0.6137995	-1.9472171e-10	0.05501281	0.055012804	0	95798.516	95798.2	-2.970679e-05	673844.25	185475.22	-0.00017303434	185477.95	673844.25	-0.00010035991
0	0.61364484	0.6136428	-2.574287e-10	0.054871533	0.054871533	0	95774.05	95773.734	-4.0123457e-05	673927.56	185172.45	-0.0002591189	185175.2	673927.44	-0.00010035991
0	0.6134871	0.6134851	-4.9505516e-10	0.054730058	0.054730058	0	95749.44	95749.125	-7.407407e-05	674011.2	184868.06	-0.00041701272	184870.8	674011.06	-0.00030454042
0	0.6133298	0.61332774	-1.4521619e-10	0.054588675	0.054588675	0	95724.875	95724.57	-2.7391976e-05	674094.3	184564.58	-5.1477713e-05	184567.33	674094.3	-0.0001557309
0	0.6131714	0.6131693	-1.4851656e-10	0.05444718	0.05444719	0	95700.16	95699.85	-2.4691359e-05	674177.94	184259.25	-0.00014534884	184261.97	674177.94	-8.651717e-05
0	0.61301285	0.6130109	-3.168353e-10	0.054305922	0.054305922	0	95675.414	95675.11	-5.0925926e-05	674261.4	183953.88	-0.00023705703	183956.62	674261.3	-0.00019379845
0	0.6128542	0.6128521	-1.5181692e-10	0.054164376	0.05416437	0	95650.65	95650.336	-2.2376544e-05	674344.7	183648.42	-7.094407e-05	183651.16	674344.7	-0.00013496677
0	0.612695	0.612693	8.580957e-11	0.05402288	0.05402288	0	95625.805	95625.484	1.3117284e-05	674428.06	183342.19	-0.00012112403	183344.92	674428	0.00025955148
0	0.61253554	0.61253357	-2.0132244e-10	0.05388161	0.05388161	0	95600.93	95600.62	-3.2021606e-05	674511.25	183035.8	-0.0002902651	183038.55	674511.3	3.114618e-05
0	0.612376	0.61237395	-4.917548e-10	0.053740077	0.053740077	0	95576.016	95575.7	-7.638889e-05	674594.5	182729.12	-0.00027036614	182731.84	674594.5	-0.0004187431
0	0.6122158	0.6122138	-1.5841765e-10	0.053598747	0.053598747	0	95551.02	95550.7	-2.3148148e-05	674677.7	182421.7	-0.00011809593	182424.45	674677.7	-7.267442e-05
0	0.6120557	0.6120538	-4.12546e-10	0.053457268	0.05345726	0	95526.04	95525.73	-6.1728395e-05	674760.7	182114.6	-0.00031578765	182117.33	674760.7	-0.00024224806
0	0.61189467	0.6118927	-4.2574747e-10	0.053315774	0.053315774	0	95500.9	95500.586	-6.404321e-05	674844.06	181805.75	-0.00037115865	181808.48	674844	-0.00024224806
0	0.6117336	0.6117317	-1.7161914e-10	0.053174455	0.053174455	0	95475.766	95475.445	-2.4691359e-05	674927.1	181497.27	-0.00018990517	181499.97	674927.06	-5.5370987e-05
0	0.6115719	0.61156994	-3.6634085e-10	0.05303296	0.05303296	0	95450.516	95450.2	-5.787037e-05	675010.4	181187.6	-0.0002586863	181190.34	675010.4	-0.0002630122
0	0.6114099	0.61140794	-1.3861545e-10	0.052891638	0.052891638	0	95425.24	95424.94	-2.5462963e-05	675093.5	180877.67	-2.9415836e-05	180880.4	675093.44	-0.00019033776
0	0.611248	0.61124605	-1.3861545e-10	0.052750144	0.052750144	0	95399.96	95399.66	-2.0061729e-05	675176.5	180568.02	-0.0001280454	180570.72	675176.4	-5.8831673e-05
0	0.6110853	0.61108345	-3.9274378e-10	0.052608833	0.052608833	0	95374.586	95374.29	-5.941358e-05	675259.44	180257.38	-0.00024138289	180260.1	675259.44	-0.00034260796
0	0.61092234	0.6109204	-1.7821987e-10	0.052467346	0.05246734	0	95349.13	95348.836	-2.7006174e-05	675342.5	179946	-0.00023835478	179948.72	675342.56	-1.3842747e-05
0	0.6107595	0.6107576	-1.7161914e-10	0.052325834	0.052325834	0	95323.73	95323.43	-2.662037e-05	675425.3	179635.3	-0.00016611295	179638.02	675425.4	-6.229236e-05
0	0.61059564	0.6105937	-1.3861545e-10	0.052184533	0.052184533	0	95298.14	95297.836	-2.507716e-05	675508.4	179322.73	-7.1376664e-05	179325.47	675508.4	-0.0001280454
0	0.61043185	0.61042994	-1.2211361e-10	0.052042995	0.052042995	0	95272.59	95272.29	-1.697531e-05	675591.06	179010.72	-0.00020764119	179013.44	675591.2	3.114618e-05
0	0.6102673	0.6102654	-1.3861545e-10	0.05190171	0.05190171	0	95246.91	95246.6	-2.507716e-05	675674.1	178697.33	-0.00015400055	178700.05	675674.2	-9.6899224e-05
0	0.6101023	0.6101004	-3.4323827e-10	0.051760204	0.051760204	0	95221.164	95220.85	-5.2469135e-05	675757.2	178383.42	-0.00012588248	178386.14	675757.1	-0.00037375416
0	0.60993785	0.6099359	-3.0363384e-10	0.051618695	0.051618688	0	95195.48	95195.17	-4.6296296e-05	675839.7	178070.42	-0.0003080011	178073.12	675839.75	-0.00010728128
0	0.60977215	0.6097703	-2.046228e-10	0.051477417	0.051477417	0	95169.625	95169.32	-3.0864197e-05	675922.6	177755.67	-0.00017519726	177758.38	675922.7	-8.651717e-05
0	0.60960615	0.6096043	8.25092e-11	0.05133591	0.05133591	0	95143.71	95143.414	1.1574074e-05	676005.5	177440.4	0.00016827589	177443.12	676005.5	-4.8449612e-05
0	0.6094402	0.60943824	-3.9934453e-10	0.05119457	0.05119457	0	95117.82	95117.516	-6.0185186e-05	676088.2	177125.38	-0.00021888842	177128.08	676088.2	-0.00034606867
0	0.6092734	0.60927147	-3.5313938e-10	0.051053066	0.051053073	0	95091.77	95091.484	-5.169753e-05	676171	176809.03	-0.00037375416	176811.75	676170.94	-0.00012112403
0	0.60910654	0.6091047	-6.468721e-10	0.050911784	0.050911777	0	95065.74	95065.45	-0.00010455247	676253.6	176492.88	-0.00054332777	176495.56	676253.7	-0.0004360465
0	0.6089398	0.60893786	-4.1584636e-10	0.05077028	0.05077028	0	95039.72	95039.42	-6.520062e-05	676336.06	176177.06	-0.0001189611	176179.73	676336	-0.0004914175
0	0.6087723	0.6087704	-3.696412e-10	0.050628774	0.050628774	0	95013.57	95013.266	-5.941358e-05	676418.6	175859.92	-0.00024743908	175862.62	676418.7	-0.0003080011
0	0.6086039	0.608602	-3.0693423e-10	0.050487492	0.05048749	0	94987.29	94986.984	-4.9768518e-05	676501.3	175541.38	-0.0003023775	175544.08	676501.4	-0.00013842747
0	0.60843545	0.60843354	-5.0165594e-10	0.05034593	0.05034593	0	94960.984	94960.7	-7.407407e-05	676583.94	175222.9	-0.00028204595	175225.62	676584	-0.00042220377
0	0.60826737	0.60826546	-4.422493e-10	0.050204657	0.050204657	0	94934.766	94934.46	-6.790124e-05	676666.1	174905.55	6.748339e-05	174908.25	676666.2	-0.0007232835
0	0.60809803	0.60809606	-2.3102575e-10	0.05006314	0.05006314	0	94908.34	94908.05	-3.317901e-05	676748.7	174585.88	-0.0001401578	174588.56	676748.8	-0.00019379845
0	0.6079285	0.6079266	-3.9604413e-11	0.049921636	0.049921636	0	94881.89	94881.586	-8.101852e-06	676831.1	174266.12	-1.2544989e-05	174268.83	676831.2	-3.114618e-05
0	0.6077591	0.6077572	-1.650184e-10	0.049780358	0.049780358	0	94855.43	94855.15	-2.4305555e-05	676913.3	173946.73	6.0562015e-06	173949.42	676913.4	-0.00022148395
0	0.60758835	0.6075865	1.8152023e-10	0.04963884	0.04963884	0	94828.78	94828.49	2.816358e-05	676995.9	173625.08	9.516888e-06	173627.78	676996	0.00027685493
0	0.6074186	0.6074166	-2.574287e-10	0.049497515	0.049497515	0	94802.29	94801.99	-3.9351853e-05	677077.9	173305.4	-0.00017216915	173308.11	677077.9	-0.00015227021
0	0.6072469	0.607245	-3.300368e-10	0.04935601	0.04935601	0	94775.5	94775.2	-5.0925926e-05	677160.5	172982.47	-0.00037202382	172985.16	677160.56	-8.651717e-05
0	0.60707545	0.6070736	-6.600736e-12	0.04921472	0.04921472	0	94748.75	94748.45	1.9290123e-06	677242.75	172660.28	-5.364064e-05	172662.95	677242.75	7.267442e-05
0	0.60690415	0.6069023	-3.3993788e-10	0.049073216	0.049073216	0	94722	94721.7	-5.4398148e-05	677324.9	172338.31	-0.00024960202	172340.98	677324.8	-0.00023532669
0	0.60673237	0.6067305	-3.3663752e-10	0.048931714	0.048931714	0	94695.195	94694.914	-5.4012347e-05	677406.8	172015.89	-0.00024916945	172018.56	677406.9	-0.00024570874
0	0.6065598	0.606558	-2.2442502e-10	0.048790433	0.048790433	0	94668.266	94667.98	-3.279321e-05	677488.94	171692.14	-0.00019985465	171694.81	677489	-0.00012458472
0	0.6063868	0.60638493	-3.696412e-10	0.04864886	0.048648864	0	94641.25	94640.95	-5.5169752e-05	677571.1	171367.64	-0.00030929886	171370.31	677571.2	-0.00021802326
0	0.60621333	0.6062115	-1.3531508e-10	0.048507594	0.048507594	0	94614.195	94613.91	-2.3148148e-05	677653.2	171042.83	6.0562015e-06	171045.5	677653.3	-0.00020418051
0	0.60604006	0.6060382	-3.300368e-10	0.048366077	0.048366074	0	94587.15	94586.85	-4.70679e-05	677735.06	170718.31	-9.127561e-05	170721	677735.2	-0.00034606867
0	0.6058665	0.6058647	3.300368e-12	0.048224572	0.048224576	0	94560.055	94559.766	-7.7160496e-07	677816.8	170393.6	4.1528237e-05	170396.27	677816.9	-3.4606866e-05
0	0.6056916	0.6056897	-4.092456e-10	0.048083298	0.048083298	0	94532.75	94532.48	-6.28858e-05	677899	170066.56	-0.00019725914	170069.22	677899.06	-0.0003806755
0	0.6055174	0.60551554	-9.571067e-11	0.04794178	0.047941785	0	94505.57	94505.28	-1.6589505e-05	677980.6	169741.05	2.4224806e-05	169743.7	677980.7	-0.00015227021
0	0.60534203	0.6053402	-1.848206e-10	0.047800448	0.047800448	0	94478.195	94477.91	-2.9320987e-05	678062.56	169413.58	-0.000117663345	169416.22	678062.7	-0.000110741974
0	0.6051664	0.6051645	-4.818537e-10	0.047658946	0.047658946	0	94450.78	94450.5	-7.445988e-05	678144.4	169085.89	-0.0003019449	169088.55	678144.5	-0.00039451828
0	0.60499054	0.60498863	-3.201357e-10	0.047517657	0.047517657	0	94423.336	94423.05	-5.015432e-05	678226.06	168757.95	-0.0002465739	168760.61	678226.2	-0.00020764119
0	0.60481477	0.6048129	-4.983556e-10	0.047376156	0.047376156	0	94395.914	94395.62	-7.8703706e-05	678307.5	168430.48	-0.00042999032	168433.14	678307.56	-0.00027339425
0	0.60463774	0.6046359	-9.24103e-11	0.047234654	0.04723466	0	94368.27	94367.99	-1.50462965e-05	678389.4	168100.89	-0.00018168605	168103.52	678389.44	7.267442e-05
0	0.60446054	0.6044587	-4.5545076e-10	0.047093365	0.047093365	0	94340.62	94340.336	-6.751543e-05	678471	167771.11	-0.00038283845	167773.75	678471.1	-0.00024224806
0	0.60428333	0.6042815	-1.7161914e-10	0.0469518	0.0469518	0	94312.96	94312.67	-2.662037e-05	678552.44	167441.52	-0.00015919158	167444.17	678552.5	-8.651717e-05
0	0.60410535	0.60410357	-2.6402944e-10	0.046810526	0.046810523	0	94285.18	94284.89	-3.9737653e-05	678634	167110.8	-0.00031492248	167113.44	678634.1	-5.8831673e-05
0	0.6039272	0.6039254	-1.4521619e-10	0.046669014	0.04666901	0	94257.375	94257.086	-2.353395e-05	678715.4	166780	-3.4606866e-05	166782.67	678715.5	-0.00016611295
0	0.6037485	0.60374665	-3.3993788e-10	0.04652774	0.04652774	0	94229.5	94229.21	-5.4398148e-05	678796.8	166448.44	-0.0003806755	166451.1	678796.9	-8.997785e-05
0	0.60357034	0.6035685	-1.9142134e-10	0.04638624	0.04638624	0	94201.67	94201.39	-3.4722223e-05	678877.75	166117.98	-0.00018947259	166120.62	678877.9	-0.000117663345
0	0.6033901	0.6033883	-3.102346e-10	0.04624473	0.04624473	0	94173.555	94173.27	-4.7453705e-05	678959.44	165784.14	-9.3871124e-05	165786.77	678959.6	-0.00031492248
0	0.60321033	0.6032085	-2.772309e-10	0.046103444	0.046103444	0	94145.5	94145.21	-4.552469e-05	679040.7	165451.14	-0.00033482144	165453.75	679040.75	-5.5370987e-05
0	0.6030302	0.60302836	-3.7624195e-10	0.045961883	0.045961883	0	94117.38	94117.09	-5.941358e-05	679121.9	165117.77	-0.00040490032	165120.39	679121.94	-0.00014880953
0	0.60284954	0.60284775	3.6304047e-11	0.04582059	0.045820594	0	94089.19	94088.914	7.3302467e-06	679203.1	164783.73	-6.229236e-05	164786.39	679203.1	0.00014534884
0	0.6026675	0.60266566	-8.811982e-10	0.045679096	0.045679096	0	94060.76	94060.484	-0.00014120371	679284.6	164447.17	-0.0003724564	164449.83	679284.75	-0.0009240033
0	0.60248715	0.6024854	-2.7063016e-10	0.0455376	0.0455376	0	94032.63	94032.336	-3.896605e-05	679365.1	164114.23	-0.00019725914	164116.86	679365.25	-0.00016611295
0	0.6023054	0.6023037	-3.696412e-10	0.0453963	0.0453963	0	94004.26	94003.984	-5.9027778e-05	679446.2	163778.83	-0.00028853473	163781.44	679446.25	-0.00024570874
0	0.6021233	0.60212153	-1.3861545e-10	0.04525481	0.04525481	0	93975.84	93975.56	-1.9290124e-05	679527	163443.02	-0.000115933	163445.64	679527.2	-7.6135104e-05
0	0.60194093	0.6019392	-2.3102575e-10	0.045113456	0.045113456	0	93947.375	93947.1	-3.742284e-05	679607.8	163106.92	-0.00029761906	163109.53	679607.94	-2.7685493e-05
0	0.6017578	0.601756	-1.3861545e-10	0.04497195	0.04497195	0	93918.79	93918.51	-1.8132716e-05	679688.7	162769.53	3.8500137e-05	162772.17	679688.9	-0.00022840532