# t (s)	mx ()	my ()	mz ()	B_extx (T)	B_exty (T)	B_extz (T)	m_fullx (A/m)	m_fully (A/m)	m_fullz (A/m)	m_full.region1x (A/m)	m_full.region1y (A/m)	m_full.region1z (A/m)	m_full.region2x (A/m)	m_full.region2y (A/m)	m_full.region2z (A/m)
0	0.6283798	0.6283783	-1.2937442e-09	0.07071083	0.07071083	0	88021.914	88021.695	-0.00018144044	665188.4	214541.22	-0.0005467885	214543.39	665188.3	-0.0012787237
0	0.62806755	0.62806547	-1.848206e-10	0.07035724	0.07035724	0	87978.18	87977.875	-2.7700831e-05	665396.4	213895.44	-0.00013842747	213898.2	665396.25	-0.00015140504
0	0.62775016	0.627748	-4.7855336e-10	0.07000352	0.07000352	0	87933.72	87933.42	-6.7174515e-05	665606.6	213240.86	-0.0003806755	213243.64	665606.44	-0.00030107974
0	0.6274239	0.62742174	-1.7821987e-10	0.06964995	0.06964995	0	87888.016	87887.71	-2.7008311e-05	665821.8	212568.94	-0.000117663345	212571.72	665821.5	-0.00012977574
0	0.62711	0.6271078	-2.9043237e-10	0.06929654	0.06929654	0	87844.04	87843.734	-4.1551248e-05	666027.56	211923.6	-0.0002630122	211926.39	666027.4	-0.00016351744
0	0.62678796	0.6267858	-1.7821987e-10	0.06894301	0.06894301	0	87798.93	87798.625	-2.666205e-05	666237.7	211262.6	-6.229236e-05	211265.39	666237.44	-0.00020158499
0	0.62646353	0.62646145	-2.5082797e-10	0.06858927	0.06858927	0	87753.484	87753.19	-3.3240998e-05	666448.3	210597.88	-0.00019725914	210600.66	666448.1	-0.00015227021
0	0.6261375	0.62613535	-2.2772538e-10	0.0682357	0.0682357	0	87707.805	87707.516	-3.2202217e-05	666658.9	209930.77	-0.00018687708	209933.56	666658.7	-0.00014534884
0	0.6258084	0.62580633	-2.9703312e-10	0.06788229	0.06788229	0	87661.71	87661.414	-4.1551248e-05	666870.3	209258.73	-0.00020764119	209261.55	666870	-0.00022754015
0	0.62548053	0.6254785	-2.2442502e-10	0.06752872	0.067528725	0	87615.8	87615.5	-3.1163436e-05	667079.94	208590.12	-0.00029069767	208592.89	667079.75	-3.2876524e-05
0	0.62514967	0.6251476	-1.1881325e-10	0.06717499	0.06717499	0	87569.44	87569.14	-1.6620499e-05	667290.3	207916.31	4.1528237e-05	207919.1	667290.25	-0.00018860742
0	0.6248169	0.6248148	-4.4885004e-10	0.06682174	0.06682174	0	87522.83	87522.54	-6.1634346e-05	667501.06	207239.94	-0.0003322259	207242.72	667500.8	-0.00029329318
0	0.62448245	0.6244803	-1.848206e-10	0.06646816	0.06646816	0	87475.98	87475.69	-2.5623269e-05	667711.5	206561.08	-5.5370987e-05	206563.83	667711.4	-0.00019379845
0	0.624146	0.6241439	-3.49839e-10	0.066114426	0.066114426	0	87428.84	87428.555	-4.8130194e-05	667922.2	205879.39	-0.00024916945	205882.16	667922.06	-0.00021888842
0	0.6238079	0.6238058	-1.2541398e-10	0.06576087	0.06576087	0	87381.49	87381.195	-1.5927977e-05	668132.8	205195.45	-8.997785e-05	205198.2	668132.8	-4.8449612e-05
0	0.6234672	0.62346506	-3.5643974e-10	0.06540745	0.06540745	0	87333.76	87333.47	-4.7783935e-05	668343.94	204507.28	-0.00013842747	204510.06	668343.8	-0.0003633721
0	0.62312573	0.62312365	-3.102346e-10	0.06505392	0.06505392	0	87285.93	87285.64	-4.1897507e-05	668554.4	203818.84	-0.00023532669	203821.61	668554.25	-0.00020677602
0	0.6227828	0.6227808	-3.696412e-10	0.06470019	0.06470019	0	87237.9	87237.62	-4.7091413e-05	668764.75	203128.48	-0.0003114618	203131.25	668764.56	-0.00018774225
0	0.62243754	0.6224355	-3.5643974e-10	0.06434663	0.06434663	0	87189.54	87189.25	-4.7783935e-05	668975.4	202434.53	-0.00037721483	202437.31	668975.25	-0.000118528515
0	0.6220888	0.6220867	-3.6304046e-10	0.06399319	0.06399319	0	87140.67	87140.38	-5.1246538e-05	669186.8	201734.7	-0.00036683277	201737.45	669186.7	-0.0001436185
0	0.62174135	0.62173927	-4.3234819e-10	0.06363963	0.06363963	0	87092.01	87091.73	-6.232687e-05	669396.44	201038.61	-0.00023532669	201041.36	669396.3	-0.00037634966
0	0.62139094	0.621389	-9.9011035e-11	0.06328592	0.06328592	0	87042.93	87042.64	-1.5235457e-05	669606.75	200337.81	-7.6135104e-05	200340.55	669606.7	-6.921373e-05
0	0.62103814	0.6210361	-3.5643974e-10	0.062932625	0.062932625	0	86993.51	86993.23	-4.9515234e-05	669817.4	199633.28	-0.0003599114	199636.03	669817.25	-0.00014751176
0	0.6206836	0.6206816	-2.9703312e-10	0.06257908	0.06257908	0	86943.86	86943.57	-4.1551248e-05	670027.75	198926.58	-0.00019379845	198929.33	670027.7	-0.00022754015
0	0.62032706	0.62032497	-4.620515e-11	0.062225346	0.062225346	0	86893.9	86893.61	-5.193906e-06	670238.25	198216.72	-5.1910298e-05	198219.48	670238.25	-1.9898947e-05
0	0.6199689	0.61996686	-4.917548e-10	0.061871808	0.061871808	0	86843.734	86843.445	-6.9944595e-05	670448.56	197505.1	-0.00040143964	197507.86	670448.5	-0.0003080011
0	0.6196083	0.6196063	-2.87132e-10	0.061518334	0.061518334	0	86793.22	86792.94	-3.7742382e-05	670659.1	196789.78	-0.00014534884	196792.53	670658.94	-0.00026041668
0	0.61924034	0.6192383	-3.4323827e-10	0.06116483	0.06116483	0	86741.67	86741.39	-4.8476453e-05	670872.7	196061	-0.00022148395	196063.73	670872.56	-0.0002803156
0	0.6188825	0.61888045	-1.1221251e-10	0.060811114	0.06081111	0	86691.55	86691.27	-1.3331025e-05	671079.25	195353.4	-0.000110741974	195356.14	671079.25	-3.3741693e-05
0	0.6185161	0.61851406	-3.7624195e-10	0.060457572	0.060457572	0	86640.23	86639.945	-5.4016622e-05	671289.7	194630.16	-0.00029069767	194632.86	671289.56	-0.00024224806
0	0.6181483	0.6181463	-1.2541398e-10	0.060104094	0.060104094	0	86588.71	86588.42	-2.0429363e-05	671499.6	193905.33	-0.0001315061	193908.06	671499.5	-6.229236e-05
0	0.6177784	0.61777645	-1.5841765e-10	0.059750553	0.059750553	0	86536.9	86536.625	-2.2680055e-05	671709.44	193177.66	-0.0001799557	193180.38	671709.5	-5.1910298e-05
0	0.6174059	0.6174039	-7.920883e-11	0.059396837	0.05939683	0	86484.71	86484.43	-1.1080332e-05	671919.7	192445.81	-4.8449612e-05	192448.53	671919.7	-6.0562015e-05
0	0.6170326	0.6170305	-3.9604414e-10	0.05904352	0.05904352	0	86432.41	86432.13	-5.6094184e-05	672129.25	191713.58	-0.00027685493	191716.3	672129.25	-0.000287237
0	0.61665606	0.6166541	-2.2442502e-10	0.058689978	0.058689978	0	86379.68	86379.41	-3.1163436e-05	672339.25	190976.56	-0.00026993355	190979.27	672339.25	-3.3741693e-05
0	0.61627877	0.61627674	-3.0693423e-10	0.05833626	0.05833626	0	86326.83	86326.55	-4.2936288e-05	672548.44	190238.98	-0.00034606867	190241.69	672548.44	-0.00010555094
0	0.61589897	0.615897	-7.920883e-11	0.057982747	0.057982743	0	86273.625	86273.35	-1.1080332e-05	672757.94	189497.94	-4.1528237e-05	189500.64	672757.8	-8.1326136e-05
0	0.6155163	0.61551434	-4.4885004e-10	0.057629235	0.05762923	0	86220.016	86219.76	-6.336565e-05	672967.6	188752.48	-0.00029761906	188755.19	672967.6	-0.00034087762
0	0.6151327	0.6151306	-1.7161914e-10	0.057275698	0.057275705	0	86166.27	86166	-2.2160664e-05	673176.75	188006.2	-0.00018687708	188008.9	673176.7	-3.633721e-05
0	0.6147461	0.6147441	-8.580957e-11	0.05692204	0.056922037	0	86112.14	86111.87	-1.0387812e-05	673386.06	187255.77	-2.4224806e-05	187258.48	673386	-9.343854e-05
0	0.6143582	0.6143563	-3.8284267e-10	0.05656851	0.056568507	0	86057.8	86057.52	-5.470914e-05	673594.94	186503.78	-0.00030454042	186506.48	673594.94	-0.00024268065
0	0.61396754	0.61396563	-2.1452391e-10	0.05621499	0.056214985	0	86003.086	86002.805	-2.7008311e-05	673804	185747.83	-0.00016611295	185750.53	673804	-0.00014707918
0	0.6135756	0.6135736	-2.1122355e-10	0.05586147	0.05586147	0	85948.164	85947.9	-3.0470914e-05	674012.5	184990.47	-0.000117663345	184993.17	674012.56	-0.00018341638
0	0.61318076	0.6131789	-5.8746547e-10	0.055507757	0.055507753	0	85892.87	85892.6	-8.171745e-05	674221.25	184229.11	-0.0005675526	184231.8	674221.3	-0.00026647287
0	0.6127843	0.6127824	-4.2904783e-10	0.05515441	0.05515441	0	85837.33	85837.07	-6.1634346e-05	674429.75	183465.67	-0.00041528238	183468.36	674429.7	-0.00016611295
0	0.6123858	0.6123839	0	0.054800894	0.054800894	0	85781.51	85781.234	-6.9252076e-07	674637.9	182699.58	-3.4606866e-05	182702.27	674637.9	4.3258584e-05
0	0.6119845	0.61198264	-1.4521619e-10	0.054447185	0.054447185	0	85725.29	85725.016	-2.1468144e-05	674846.25	181929.36	-5.5370987e-05	181932.05	674846.25	-0.00012891057
0	0.6115815	0.6115796	-3.300368e-11	0.054093685	0.054093685	0	85668.85	85668.586	-4.1551248e-06	675054	181157.4	0	181160.1	675054	-4.1528237e-05
0	0.6111759	0.61117405	-3.102346e-10	0.05374012	0.05374012	0	85612.03	85611.766	-4.362881e-05	675262	180381.64	-0.00022148395	180384.31	675262	-0.00021802326
0	0.6107681	0.61076623	-2.8383165e-10	0.05338661	0.05338661	0	85554.914	85554.64	-3.7396123e-05	675469.75	179602.94	-0.00013842747	179605.61	675469.75	-0.00025263013
0	0.61035234	0.61035043	-3.6304046e-10	0.05303296	0.05303296	0	85496.664	85496.4	-5.4016622e-05	675680.25	178810.33	-0.00022148395	178813	675680.25	-0.0003235742
0	0.60994714	0.60994524	-3.7954231e-10	0.052679453	0.052679453	0	85439.91	85439.64	-5.5055403e-05	675884	178039.36	-0.00026993355	178042	675884.06	-0.0002682032
0	0.60953206	0.6095302	-4.3894893e-10	0.052325875	0.052325867	0	85381.76	85381.5	-5.9556787e-05	676091.44	177250.69	-0.00029069767	177253.34	676091.5	-0.00030367525
0	0.60911644	0.6091146	-4.1914672e-10	0.051972385	0.051972385	0	85323.54	85323.28	-5.8171747e-05	676297.94	176462.5	-0.00041528238	176465.14	676297.94	-0.00013929264
0	0.6086973	0.6086954	-3.5643974e-10	0.05161868	0.05161868	0	85264.836	85264.57	-5.193906e-05	676504.6	175668.92	-0.0002630122	175671.55	676504.75	-0.00024224806
0	0.60827655	0.60827464	-1.7821987e-10	0.051265296	0.051265296	0	85205.89	85205.64	-2.4238227e-05	676710.9	174873.61	6.9213734e-06	174876.27	676710.94	-0.00026128185
0	0.607852	0.6078502	-5.11557e-10	0.050911795	0.050911795	0	85146.414	85146.164	-7.236842e-05	676917.56	174072.55	-0.00040143964	174075.17	676917.7	-0.00032790005
0	0.607428	0.60742617	-3.2343606e-10	0.050558098	0.050558098	0	85087.02	85086.77	-4.639889e-05	677122.75	173273.69	-0.00022840532	173276.31	677122.9	-0.00022148395
0	0.6069996	0.6069977	-2.1122355e-10	0.050204623	0.050204623	0	85027.016	85026.75	-2.9605264e-05	677328.6	172468.03	-0.00013842747	172470.66	677328.7	-0.0001617871
0	0.6065691	0.60656726	-3.102346e-10	0.049851004	0.049851004	0	84966.72	84966.47	-4.1551248e-05	677534.1	171659.97	-0.00023532669	171662.61	677534.2	-0.00016957364
0	0.6061367	0.6061349	-1.8812098e-10	0.049497522	0.049497515	0	84906.15	84905.89	-2.7008311e-05	677739.2	170849.55	-0.00018341638	170852.16	677739.25	-8.824751e-05
0	0.6057013	0.60569954	-8.25092e-11	0.049143877	0.04914388	0	84845.17	84844.92	-1.35041555e-05	677944.2	170035.11	-4.8449612e-05	170037.72	677944.3	-7.4404765e-05
0	0.60525805	0.60525626	-2.9373273e-10	0.048790403	0.048790403	0	84783.06	84782.82	-4.0858726e-05	678151.56	169207.06	-0.00037375416	169209.69	678151.6	-2.9415836e-05
0	0.604824	0.6048223	-2.7063016e-10	0.048436765	0.048436765	0	84722.266	84722.02	-3.601108e-05	678353.25	168397.83	-0.00015746124	168400.4	678353.3	-0.00021283222
0	0.6043822	0.6043804	-3.6304047e-11	0.048083298	0.048083298	0	84660.39	84660.15	-4.501385e-06	678557	167575.42	-6.921373e-05	167578.03	678557.2	-8.651717e-06
0	0.6039372	0.6039354	-5.2805888e-11	0.047729604	0.047729604	0	84598.055	84597.805	-1.0734072e-05	678760.9	166748.61	-1.7303433e-05	166751.19	678761.06	-5.5370987e-05
0	0.6034889	0.6034872	-3.0693423e-10	0.04737618	0.04737618	0	84535.26	84535.01	-4.5706372e-05	678964.9	165917	-0.00038413622	165919.58	678965	-5.580357e-05
0	0.6030405	0.6030388	-3.8449285e-10	0.047022708	0.047022708	0	84472.445	84472.2	-5.2631578e-05	679167.44	165086.69	-0.00029761906	165089.25	679167.6	-0.00023965255
0	0.6025882	0.6025865	-4.422493e-10	0.046669014	0.046669014	0	84409.08	84408.836	-6.5443215e-05	679370.44	164250.42	-0.00034087762	164252.97	679370.56	-0.0003114618
0	0.6021338	0.6021321	-4.703024e-10	0.04631557	0.04631557	0	84345.43	84345.19	-6.578947e-05	679572.75	163411.89	-0.0004931478	163414.45	679573	-0.00018514674
0	0.6016739	0.6016722	-3.4653863e-10	0.04596188	0.045961883	0	84281.01	84280.77	-4.8130194e-05	679776.2	162564.7	-0.00021456256	162567.25	679776.25	-0.0002465739
0	0.6012158	0.6012142	-1.3168469e-09	0.045608427	0.045608435	0	84216.85	84216.61	-0.00018421053	679977.3	161722.27	-0.0012873755	161724.8	679977.5	-0.0005606312
0	0.6007494	0.60074764	-2.5082797e-10	0.0452548	0.0452548	0	84151.51	84151.27	-3.601108e-05	680180.7	160865.95	-0.0002751246	160868.5	680180.8	-7.094407e-05
0	0.60028994	0.60028833	-2.2112465e-10	0.04490134	0.04490134	0	84087.16	84086.93	-2.9085873e-05	680379.44	160023.97	-0.00022148395	160026.5	680379.6	-6.618563e-05
0	0.59982276	0.59982115	-5.5116145e-10	0.044547655	0.044547655	0	84021.71	84021.484	-7.6523545e-05	680580.1	159169.27	-0.0004931478	159171.78	680580.3	-0.00027945044
0	0.5993527	0.5993511	-3.7954231e-10	0.044194218	0.044194218	0	83955.87	83955.64	-5.2631578e-05	680780.56	158310.81	-0.00032703488	158313.34	680780.7	-0.00016265227
0	0.59888023	0.5988786	-2.5082797e-10	0.04384053	0.04384053	0	83889.69	83889.45	-3.67036e-05	680980.5	157449.38	-0.000287237	157451.88	680980.7	-8.1326136e-05
0	0.5984036	0.598402	-3.300368e-10	0.043487072	0.043487072	0	83822.91	83822.695	-4.7783935e-05	681180.6	156581.9	-0.00031492248	156584.4	681180.8	-0.00015227021
0	0.59792745	0.5979258	-2.4092686e-10	0.043133613	0.04313361	0	83756.22	83755.99	-3.601108e-05	681379.2	155716.75	-0.0001557309	155719.25	681379.44	-0.00020071982
0	0.5974468	0.59744525	-1.551173e-10	0.04277993	0.04277993	0	83688.89	83688.67	-1.83518e-05	681578	154845.06	-0.00011420266	154847.55	681578.3	-6.921373e-05
0	0.5969639	0.5969623	1.1551288e-11	0.042426463	0.042426463	0	83621.25	83621.02	3.462604e-06	681776.25	153970.7	8.651717e-05	153973.2	681776.44	-6.3590116e-05
0	0.5964725	0.5964709	3.6304047e-11	0.042072795	0.042072795	0	83552.41	83552.195	4.8476454e-06	681976.4	153082.61	1.7303433e-06	153085.1	681976.6	5.8831673e-05
0	0.5959896	0.59598804	-3.6634085e-10	0.041719336	0.041719336	0	83484.77	83484.55	-4.9861497e-05	682171.56	152211.36	-0.0001799557	152213.83	682171.9	-0.00031665282
0	0.5954988	0.5954972	-1.5841765e-10	0.04136572	0.04136572	0	83416.01	83415.8	-2.1814405e-05	682368.5	151327.36	-0.00019725914	151329.83	682368.7	-5.1910297e-06
0	0.5950043	0.59500283	-2.2772538e-10	0.041012254	0.041012254	0	83346.766	83346.55	-3.0817173e-05	682565.1	150438.53	-0.00032530454	150441	682565.4	1.3842747e-05
0	0.59450746	0.59450597	-1.1551288e-10	0.040658582	0.040658582	0	83277.15	83276.93	-1.5581718e-05	682761.4	149546.69	-0.0001799557	149549.12	682761.5	2.0764119e-05
0	0.5940082	0.59400666	-1.551173e-10	0.04030513	0.04030513	0	83207.22	83207.01	-1.9390582e-05	682956.8	148652.25	-0.00040836103	148654.7	682957.06	0.00019206811
0	0.59350586	0.5935043	-8.25092e-11	0.039951455	0.039951455	0	83136.84	83136.63	-1.0387812e-05	683151.9	147753.84	0.00010035991	147756.27	683152.2	-0.00020071982
0	0.5930004	0.5929989	-4.026449e-10	0.039597988	0.039597988	0	83066.055	83065.84	-5.7132966e-05	683346.5	146851.61	-0.00034260796	146854.03	683346.8	-0.00024743908
0	0.59249246	0.592491	-4.1419618e-10	0.039244518	0.039244518	0	82994.9	82994.69	-5.6094184e-05	683540.75	145946.28	-0.0005017996	145948.69	683541.06	-7.094407e-05
0	0.59198177	0.5919802	6.9307726e-11	0.038890842	0.038890842	0	82923.36	82923.15	1.1772853e-05	683734.1	145037.8	-2.4224806e-05	145040.19	683734.56	0.0001315061
0	0.591468	0.59146655	-2.0792318e-10	0.038537372	0.03853737	0	82851.4	82851.19	-2.9778394e-05	683927.3	144125.5	0.00011420266	144127.92	683927.7	-0.0004118217
0	0.5909511	0.59094965	-5.3795995e-10	0.038183715	0.038183715	0	82778.99	82778.78	-7.7216064e-05	684119.8	143209.3	-0.00057793467	143211.66	684120.3	-0.00018514674
0	0.59043163	0.59043014	-4.1914672e-10	0.037830245	0.037830245	0	82706.22	82706.016	-5.8171747e-05	684311.9	142290	-0.00036683277	142292.38	684312.2	-0.00020071982
0	0.5899091	0.5899077	-3.3663752e-10	0.03747658	0.03747658	0	82633.03	82632.83	-4.501385e-05	684503.3	141367.16	-0.0003564507	141369.52	684503.6	-9.170819e-05
0	0.5893836	0.5893822	-5.280589e-10	0.037123166	0.037123166	0	82559.42	82559.22	-7.202216e-05	684694.1	140440.56	-0.00039797896	140442.94	684694.5	-0.00034952935
0	0.58885556	0.5888541	-2.1122355e-10	0.03676951	0.03676951	0	82485.45	82485.25	-3.2202217e-05	684884.25	139511.19	-0.00020245016	139513.53	684884.6	-0.00010728128
0	0.5883239	0.58832246	-3.300368e-12	0.036416043	0.036416043	0	82410.984	82410.79	6.9252076e-07	685074.06	138577.05	0.00014188814	138579.4	685074.5	-0.00012285437
0	0.58778936	0.58778787	-4.5875115e-10	0.036062382	0.036062382	0	82336.09	82335.91	-6.371191e-05	685263.1	137639.55	-0.00025263013	137641.89	685263.56	-0.00038586656
0	0.5872517	0.5872503	-3.1848552e-10	0.035708904	0.035708904	0	82260.79	82260.59	-4.3282547e-05	685451.6	136698.38	-0.00038413622	136700.7	685452.06	-5.5370987e-05
0	0.58671093	0.58670956	-4.851541e-10	0.035355415	0.035355415	0	82185.04	82184.84	-6.8213296e-05	685639.56	135753.39	-0.00043258583	135755.7	685639.94	-0.00023359635
0	0.5861685	0.5861673	-2.4422722e-10	0.03500176	0.03500176	0	82109.07	82108.87	-3.7396123e-05	685826.3	134807.3	-3.8067552e-05	134809.61	685826.75	-0.00032876522
0	0.58562154	0.5856202	-2.673298e-10	0.03464827	0.03464827	0	82032.43	82032.25	-3.635734e-05	686013.06	133854.75	-0.0003633721	133857.06	686013.5	8.651717e-06
0	0.5850717	0.5850703	8.0859014e-11	0.034294635	0.03429463	0	81955.414	81955.23	1.2119113e-05	686199	132899.06	-8.997785e-05	132901.36	686199.44	0.00018514674
0	0.5845184	0.58451706	-3.49839e-10	0.033941146	0.033941146	0	81877.9	81877.71	-4.9168975e-05	686384.4	131939.03	-0.00031492248	131941.33	686384.75	-0.00017476467
0	0.58396256	0.58396125	-2.4752758e-10	0.033587497	0.033587497	0	81800.05	81799.87	-3.462604e-05	686568.75	130976.55	-0.00038240588	130978.79	686569.25	1.9033776e-05
0	0.5834034	0.5834021	-1.5181692e-10	0.03323408	0.03323408	0	81721.73	81721.54	-2.4930749e-05	686752.7	130009.88	-0.0001280454	130012.14	686753	-0.000115933
0	0.58284086	0.58283955	-5.9406625e-11	0.032880437	0.032880437	0	81642.92	81642.74	-9.00277e-06	686935.8	129039.07	-8.997785e-05	129041.32	686936.25	1.7303433e-05
0	0.5822751	0.5822738	-2.5082797e-10	0.03252696	0.03252696	0	81563.67	81563.49	-3.427978e-05	687118.2	128064.625	-0.00024224806	128066.85	687118.7	-0.00011247231
0	0.581706	0.58170474	-2.1452391e-10	0.032173313	0.032173313	0	81483.96	81483.79	-2.9432133e-05	687299.94	127086.23	-0.0002837763	127088.44	687300.44	-2.898325e-05
0	0.58113396	0.58113277	-6.600736e-11	0.031819817	0.031819817	0	81403.836	81403.664	-8.3102495e-06	687480.9	126104.52	-2.0764119e-05	126106.734	687481.4	-8.3056475e-05
0	0.5805585	0.5805572	-2.9373273e-10	0.031466313	0.031466313	0	81323.22	81323.05	-3.9646813e-05	687661.1	125118.586	-0.00028550666	125120.78	687661.56	-0.00011420266
0	0.57997364	0.5799725	-3.300368e-10	0.031112673	0.031112673	0	81241.3	81241.13	-4.605263e-05	687842.4	124118.61	-0.0003322259	124120.79	687842.94	-0.0001401578
0	0.5793975	0.5793963	-1.848206e-10	0.03075917	0.030759167	0	81160.586	81160.42	-2.8393351e-05	688019.25	123135.15	-0.00030454042	123137.32	688019.6	2.5955149e-05
0	0.57880616	0.57880497	4.9505518e-11	0.030405557	0.030405557	0	81077.76	81077.59	6.925208e-06	688198.75	122127.62	-2.4224806e-05	122129.79	688199.25	0.00012112403
0	0.5782226	0.5782214	-9.7360855e-11	0.030052047	0.030052047	0	80996.01	80995.84	-1.3850416e-05	688374.25	121135.234	-0.00023532669	121137.38	688374.75	0.00012112403
0	0.5776308	0.5776296	-1.7821987e-10	0.029698418	0.029698415	0	80913.12	80912.95	-2.7008311e-05	688550.4	120130.65	-0.00018687708	120132.805	688550.8	-6.40227e-05
0	0.5770351	0.577034	-2.6402944e-11	0.029344989	0.029344989	0	80829.69	80829.52	-3.1163436e-06	688725.75	119121.39	-0.00026993355	119123.516	688726.25	0.000231866
0	0.5764361	0.57643497	-4.0759543e-10	0.028991373	0.028991373	0	80745.766	80745.6	-5.7132966e-05	688900.25	118108.164	-0.00024570874	118110.29	688900.75	-0.00032530454
0	0.5758335	0.57583237	-2.0132244e-10	0.028637853	0.028637853	0	80661.35	80661.195	-3.0124655e-05	689074	117090.83	-0.00025263013	117092.93	689074.44	-7.4404765e-05
0	0.5752271	0.5752259	-1.9307152e-10	0.028284255	0.028284255	0	80576.39	80576.234	-2.5623269e-05	689246.8	116068.86	-0.0002560908	116070.95	689247.4	1.0382059e-05
0	0.57461846	0.5746174	-2.7393054e-10	0.027930735	0.027930735	0	80491.16	80491.01	-4.1897507e-05	689418.4	115045.38	-0.00020071982	115047.46	689419	-0.00020937154
0	0.5740044	0.57400334	-6.600736e-11	0.027577205	0.027577205	0	80405.14	80404.99	-1.2465374e-05	689589.75	114014.39	-7.6135104e-05	114016.46	689590.3	-3.9797895e-05
0	0.57338756	0.5733865	1.1221251e-10	0.027223593	0.027223593	0	80318.734	80318.586	1.3677285e-05	689759.75	112980.766	-9.516888e-06	112982.83	689760.44	0.00017822535
0	0.5727673	0.57276636	-1.650184e-10	0.02687006	0.02687006	0	80231.87	80231.72	-2.1814405e-05	689928.94	111943.37	-0.00010035991	111945.414	689929.5	-0.00013669713
0	0.57214344	0.5721424	1.3861545e-10	0.02651648	0.02651648	0	80144.46	80144.32	1.904432e-05	690097.25	110901.62	-5.1910298e-05	110903.66	690097.75	0.00026993355
0	0.5715159	0.57151484	-2.0792318e-10	0.026162937	0.026162937	0	80056.555	80056.414	-2.8220222e-05	690264.44	109855.84	-0.00019206811	109857.85	690265	-9.6899224e-05
0	0.570885	0.5708839	-3.7294157e-10	0.02580934	0.02580934	0	79968.18	79968.03	-5.0727147e-05	690430.6	108806.31	-0.0003322259	108808.33	690431.2	-0.00018687708
0	0.57024986	0.5702489	-2.3102575e-10	0.025455898	0.025455898	0	79879.21	79879.08	-3.462604e-05	690595.94	107751.92	-0.00016957364	107753.914	690596.56	-0.00014188814
0	0.5696115	0.56961054	-8.580957e-11	0.025102312	0.025102312	0	79789.78	79789.65	-1.1426593e-05	690760.1	106693.92	1.7303433e-06	106695.9	690760.8	-0.00012285437
0	0.5689686	0.5689676	-3.102346e-10	0.024748761	0.024748761	0	79699.73	79699.6	-4.501385e-05	690923.56	105630.51	-0.00046027132	105632.48	690924.1	-3.4606867e-06
0	0.5683228	0.5683218	1.551173e-10	0.024395201	0.024395201	0	79609.27	79609.14	2.3545706e-05	691085.6	104564.32	0.00031492248	104566.266	691086.25	-0.000103820596
0	0.56766754	0.5676666	-6.386212e-10	0.024041649	0.024041649	0	79517.48	79517.35	-8.82964e-05	691248.06	103484.45	-0.00029502352	103486.38	691248.75	-0.00060042914
0	0.56701356	0.56701267	-2.046228e-10	0.02368809	0.02368809	0	79425.875	79425.75	-2.8047092e-05	691408.2	102408.85	-4.8449612e-05	102410.79	691408.9	-0.00022797273
0	0.56636125	0.5663603	-3.1353495e-10	0.023334507	0.023334507	0	79334.5	79334.38	-4.501385e-05	691565.9	101337.914	-0.0002560908	101339.83	691566.5	-0.00020418051
0	0.5656996	0.5656987	-8.9109935e-11	0.02298094	0.02298094	0	79241.82	79241.695	-1.1772853e-05	691723.8	100253.67	-0.00022148395	100255.57	691724.5	0.00010728128
0	0.5650344	0.5650336	8.25092e-12	0.0226274	0.0226274	0	79148.65	79148.52	2.596953e-06	691880.5	99165.85	-1.0382059e-05	99167.734	691881.2	1.0814646e-05
0	0.56436497	0.56436414	-1.1881325e-10	0.022273827	0.022273827	0	79054.87	79054.76	-1.6447368e-05	692036.1	98072.94	-0.000117663345	98074.805	692036.8	-4.8449612e-05
0	0.56369144	0.5636906	-1.2706416e-10	0.021920266	0.021920266	0	78960.52	78960.414	-1.904432e-05	692190.7	96975.5	-0.00013842747	96977.36	692191.4	-4.3258584e-05
0	0.5630143	0.5630136	-2.8383165e-10	0.021566804	0.021566804	0	78865.68	78865.56	-3.8261773e-05	692344.06	95874.35	-0.0004914175	95876.195	692344.7	9.516888e-05
0	0.5623331	0.5623324	-8.0859014e-11	0.021213232	0.021213232	0	78770.266	78770.15	-9.349031e-06	692496.06	94768.61	1.0382059e-05	94770.445	692496.75	-0.00010901163
0	0.56164753	0.5616467	-2.4752758e-10	0.020859668	0.020859668	0	78674.22	78674.1	-3.2548476e-05	692647	93657.67	-0.00020980413	93659.48	692647.7	-0.0001401578
0	0.56095797	0.56095725	-4.6865223e-10	0.020506127	0.020506127	0	78577.63	78577.52	-6.42313e-05	692796.7	92542.73	-0.00029415835	92544.51	692797.44	-0.00036683277
0	0.5602647	0.560264	-2.6402944e-11	0.020152565	0.020152565	0	78480.53	78480.42	-3.8088642e-06	692945.06	91423.82	0.00011420266	91425.6	692945.75	-0.00014102297
0	0.5595671	0.5595664	1.1221251e-10	0.019798994	0.019798994	0	78382.8	78382.69	1.5062327e-05	693092.25	90299.98	0.00020850636	90301.734	693093	-5.0179955e-05
0	0.55886555	0.5588649	-1.1056232e-10	0.019445421	0.019445421	0	78284.53	78284.42	-1.5235457e-05	693238.1	89172.016	-0.00025263013	89173.75	693238.8	0.00012112403
0	0.55815876	0.5581581	-2.6897998e-10	0.01909186	0.019091858	0	78185.52	78185.42	-3.8434904e-05	693382.75	88037.79	-0.00023878737	88039.516	693383.5	-0.0001557309
0	0.557449	0.55744827	-3.3993788e-10	0.01873829	0.01873829	0	78086.086	78086	-4.6745154e-05	693526.06	86900.83	-0.00035558554	86902.53	693526.75	-0.00012631506
0	0.5567344	0.55673367	-4.3894893e-10	0.018384755	0.018384755	0	77986	77985.9	-6.3538784e-05	693668	85758.53	-0.00058139535	85760.23	693668.6	-6.229236e-05
0	0.5560162	0.55601555	-1.2046343e-10	0.018031191	0.018031191	0	77885.4	77885.3	-1.6274238e-05	693808.44	84612.55	-0.0002837763	84614.23	693809.2	8.997785e-05
0	0.5552921	0.55529153	-3.5313938e-10	0.017677708	0.017677708	0	77783.97	77783.88	-4.9168975e-05	693947.9	83459.586	-0.000115500414	83461.234	693948.56	-0.00037894517
0	0.55456465	0.5545641	1.650184e-12	0.017324135	0.017324135	0	77682.07	77681.984	-1.731302e-06	694085.6	82303.336	-0.00014188814	82304.98	694086.44	0.00015400055
0	0.553833	0.55383235	-1.848206e-10	0.016970573	0.016970573	0	77579.57	77579.484	-2.3545706e-05	694222	81142.53	-0.00027339425	81144.164	694222.8	1.0382059e-05
0	0.5530969	0.55309635	4.7855334e-11	0.01661704	0.01661704	0	77476.46	77476.38	7.098338e-06	694356.94	79977.11	-0.000103820596	79978.73	694357.7	0.00018168605
0	0.5523565	0.55235595	-6.5017247e-10	0.01626348	0.01626348	0	77372.76	77372.67	-8.968144e-05	694490.44	78807.195	-0.00039451828	78808.78	694491.2	-0.00051045127
0	0.5516108	0.5516103	-5.6106255e-11	0.015909908	0.015909908	0	77268.305	77268.234	-8.65651e-06	694622.44	77631.14	1.6221968e-05	77632.71	694623.25	-0.000115933
0	0.55086106	0.5508605	-5.8746547e-10	0.015556336	0.015556336	0	77163.27	77163.195	-8.240997e-05	694753.06	76450.89	-0.00047216742	76452.45	694753.8	-0.0003564507
0	0.5501066	0.55010605	-2.4752758e-10	0.015202778	0.01520278	0	77057.586	77057.516	-3.704986e-05	694882.06	75265.57	-0.00029415835	75267.12	694882.94	-5.0179955e-05
0	0.5493482	0.54934764	-4.5462567e-10	0.014849209	0.014849207	0	76951.35	76951.29	-6.405817e-05	695009.5	74076.48	-0.0004395072	74078	695010.25	-0.00021283222
0	0.54858446	0.548584	-2.1452391e-10	0.014495686	0.014495687	0	76844.375	76844.305	-3.0297784e-05	695135.44	72881.3	-0.00023532669	72882.8	695136.3	-8.824751e-05
0	0.5478165	0.5478161	1.848206e-10	0.014142128	0.014142127	0	76736.805	76736.734	2.648892e-05	695259.75	71681.875	3.114618e-05	71683.35	695260.56	0.00021283222
0	0.5470382	0.5470378	-1.7326932e-10	0.013788602	0.013788602	0	76627.766	76627.72	-2.2333796e-05	695383.3	70468.64	-0.00023619186	70470.11	695384.25	6.9213734e-06
0	0.54626703	0.5462666	-3.2343606e-10	0.01343503	0.01343503	0	76519.75	76519.69	-4.362881e-05	695503.44	69268.96	-0.00024051772	69270.41	695504.25	-0.00021412998
0	0.54548395	0.5454835	-4.5545076e-10	0.013081469	0.013081467	0	76410.055	76410	-6.111496e-05	695623.06	68053.01	-0.0005017996	68054.42	695623.94	-9.862957e-05
0	0.5446969	0.5446966	-1.749195e-10	0.012727949	0.012727949	0	76299.82	76299.78	-2.4930749e-05	695740.8	66833.55	-0.0003080011	66834.95	695741.6	6.0562015e-05
0	0.54390496	0.5439046	-4.9505518e-11	0.012374381	0.012374379	0	76188.88	76188.836	-5.367036e-06	695856.8	65608.63	-0.00020850636	65610.02	695857.8	0.00015053987
0	0.5431089	0.5431086	-4.4554968e-10	0.0120208245	0.0120208245	0	76077.37	76077.32	-6.284626e-05	695971.2	64379.902	-0.0003356866	64381.266	695972.06	-0.0002777201
0	0.542302	0.5423017	-6.072677e-10	0.011667253	0.011667253	0	75964.35	75964.305	-8.3102495e-05	696084.5	63137.043	-0.00035299003	63138.387	696085.3	-0.00048276578
0	0.54150057	0.5415002	6.600736e-11	0.0113137	0.0113137	0	75852.086	75852.04	1.0734072e-05	696194.56	61904.855	-4.974737e-05	61906.188	696195.5	0.00014880953
0	0.5406886	0.54068834	-6.600736e-12	0.010960133	0.010960133	0	75738.34	75738.305	-9.5221606e-07	696303.7	60659.023	6.229236e-05	60660.33	696304.6	-7.3107e-05
0	0.5398723	0.5398721	-1.7987005e-10	0.010606616	0.010606616	0	75624	75623.95	-2.4238227e-05	696410.8	59409.047	-0.000103820596	59410.33	696411.8	-0.0001436185
0	0.5390505	0.53905016	-2.9043237e-10	0.010253063	0.010253063	0	75508.875	75508.84	-4.0858726e-05	696516.3	58153.08	-0.000103820596	58154.348	696517.2	-0.0003080011
0	0.53822374	0.53822356	-5.5776217e-10	0.009899497	0.009899497	0	75393.08	75393.04	-7.903393e-05	696619.8	56892.207	-0.0004187431	56893.457	696620.75	-0.00035299003
0	0.5373917	0.53739154	5.445607e-11	0.00954593	0.009545929	0	75276.52	75276.5	6.232687e-06	696721.5	55625.77	7.6135104e-05	55626.99	696722.44	-1.557309e-05
0	0.53655493	0.53655475	-7.260809e-11	0.009192377	0.009192377	0	75159.305	75159.28	-9.954986e-06	696821.1	54354.56	-6.834856e-05	54355.76	696822.1	-2.5955149e-05
0	0.53570825	0.53570807	-6.600736e-11	0.008838854	0.008838854	0	75040.7	75040.68	-1.0041551e-05	696919.44	53070.945	-0.0002837763	53072.12	696920.3	0.00017606243
0	0.53486544	0.5348652	-4.5380058e-10	0.0084852865	0.0084852865	0	74922.65	74922.625	-6.371191e-05	697014.6	51795.785	-0.00038586656	51796.95	697015.6	-0.00025955148
0	0.53401256	0.5340124	-1.9142134e-10	0.00813174	0.00813174	0	74803.164	74803.15	-2.735457e-05	697108.44	50507.914	-0.000231866	50509.05	697109.4	-5.0179955e-05
0	0.53315413	0.533154	-1.3201472e-11	0.007778168	0.0077781687	0	74682.94	74682.914	-4.76108e-06	697200.25	49214.42	-0.00011420266	49215.54	697201.2	7.959579e-05
0	0.5322911	0.532291	-3.7789213e-10	0.0074246037	0.0074246037	0	74562.04	74562.03	-5.1592797e-05	697289.9	47916.59	-0.00046027132	47917.684	697290.8	-4.9314785e-05
0	0.5314224	0.53142226	-1.5181692e-10	0.007071064	0.007071064	0	74440.35	74440.34	-2.1468144e-05	697377.44	46612.777	-0.00017822535	46613.85	697378.4	-3.114618e-05
0	0.5305476	0.5305476	-2.7393054e-10	0.0067175142	0.006717515	0	74317.82	74317.82	-3.808864e-05	697463	45302.695	-9.6034055e-05	45303.74	697464	-0.0002993494
0	0.52966774	0.52966774	-1.3201472e-10	0.0063639744	0.0063639744	0	74194.57	74194.555	-1.9996538e-05	697546.3	43987.48	-0.00029069767	43988.504	697547.4	0.00012112403