# t (s)	mx ()	my ()	mz ()	B_extx (T)	B_exty (T)	B_extz (T)	m_fullx (A/m)	m_fully (A/m)	m_fullz (A/m)	m_full.region1x (A/m)	m_full.region1y (A/m)	m_full.region1z (A/m)	m_full.region2x (A/m)	m_full.region2y (A/m)	m_full.region2z (A/m)
0	0.65180486	0.6518039	-2.7806776e-10	0.07071082	0.07071082	0	95091.3	95091.16	-4.226958e-05	622955.94	289570.25	-6.174533e-05	289570.94	622955.25	-0.00035932355
0	0.6515785	0.6515777	-3.1078164e-11	0.07035725	0.07035725	0	95058.266	95058.17	-4.4682433e-06	623146.75	289062.66	1.07196765e-05	289063.06	623146.25	-3.8590835e-05
0	0.6513477	0.65134716	-3.913395e-10	0.070003524	0.07000352	0	95024.61	95024.52	-5.451257e-05	623343.56	288542.88	-0.00036318263	288543.28	623343.06	-0.00019809962
0	0.65111476	0.6511141	-2.28997e-11	0.06964995	0.06964995	0	94990.62	94990.52	-7.327919e-06	623540.9	288019.38	-0.00010633919	288019.72	623540.44	5.659989e-05
0	0.6508808	0.6508802	-4.4163706e-10	0.06929654	0.06929654	0	94956.5	94956.41	-6.648746e-05	623738.25	287494.6	-0.0002847146	287495	623737.7	-0.0003447448
0	0.65064573	0.6506451	1.586622e-10	0.068943	0.068943	0	94922.195	94922.09	2.4932797e-05	623936	286967.53	8.404226e-05	286967.97	623935.5	0.00013378156
0	0.6504086	0.6504079	-8.014894e-11	0.06858927	0.06858927	0	94887.61	94887.516	-1.34047295e-05	624135.2	286436.56	-6.860593e-05	286436.97	624134.7	-6.088776e-05
0	0.65017086	0.65017027	-2.6334654e-10	0.06823571	0.0682357	0	94852.92	94852.83	-3.8248163e-05	624333.5	285905.4	-0.00021096323	285905.8	624332.94	-0.00016508301
0	0.64993215	0.64993143	-4.5554044e-10	0.067882285	0.067882285	0	94818.086	94817.99	-6.720238e-05	624531.8	285372.78	-0.00033959936	285373.2	624531.25	-0.00032159028
0	0.6496904	0.64968973	-1.443499e-10	0.06752872	0.06752872	0	94782.81	94782.72	-2.31455e-05	624731.5	284834.6	-0.00014750274	284835	624731.06	-8.575741e-05
0	0.64944845	0.64944786	-4.743509e-10	0.06717499	0.06717499	0	94747.53	94747.44	-6.948118e-05	624930.56	284296.84	-0.00033959936	284297.28	624930.06	-0.0003335963
0	0.6492056	0.64920497	-1.9955451e-10	0.066821724	0.066821724	0	94712.1	94712	-3.0205325e-05	625130.7	283756.78	-0.00014407244	283757.2	625130.2	-0.00013206642
0	0.64896023	0.6489596	-1.2921973e-10	0.06646816	0.06646815	0	94676.305	94676.21	-1.8409162e-05	625330.06	283213.84	-5.1454444e-05	283214.28	625329.5	-0.0001192028
0	0.64871275	0.6487121	-1.958742e-10	0.066114426	0.066114426	0	94640.2	94640.09	-3.324373e-05	625532.4	282665.16	-0.00010633919	282665.6	625531.75	-0.00017666027
0	0.6484672	0.64846647	-6.542771e-11	0.06576088	0.06576088	0	94604.37	94604.27	-6.79173e-06	625731.9	282121.62	-4.1163556e-05	282122.1	625731.4	-7.546652e-05
0	0.6482187	0.6482179	-3.385884e-10	0.06540743	0.06540743	0	94568.11	94568	-4.6112273e-05	625932.56	281573.1	-0.00023326016	281573.5	625932	-0.00023025865
0	0.6479676	0.647967	-2.71525e-10	0.065053925	0.06505392	0	94531.49	94531.39	-4.0661012e-05	626133.8	281020.5	-0.00020924807	281020.94	626133.3	-0.00020581778
0	0.64771676	0.64771605	-8.178464e-11	0.06470019	0.06470019	0	94494.89	94494.79	-1.22429865e-05	626335.06	280467.97	-6.860593e-05	280468.47	626334.5	5.1454444e-06
0	0.647463	0.6474623	-4.7680443e-10	0.06434664	0.06434664	0	94457.875	94457.77	-6.255541e-05	626537.1	279910.7	-0.0003477463	279911.12	626536.56	-0.00027956915
0	0.6472088	0.64720803	-1.0697431e-09	0.06399318	0.063993186	0	94420.8	94420.68	-0.00015625446	626738.7	279353.3	-0.0007272228	279353.78	626738.06	-0.0007658137
0	0.64695245	0.6469517	-1.6684067e-10	0.06363963	0.06363963	0	94383.375	94383.27	-2.5379622e-05	626941.56	278791.34	-6.860593e-05	278791.78	626941	-0.00020067234
0	0.64669555	0.64669484	-4.874364e-10	0.06328592	0.06328592	0	94345.914	94345.8	-7.207276e-05	627143.94	278229.47	-0.00040305982	278229.88	627143.4	-0.00031901756
0	0.64643645	0.6464357	-1.9628313e-10	0.06293262	0.06293262	0	94308.11	94308	-2.7032873e-05	627347.06	277663.5	-0.00016122393	277663.97	627346.44	-0.00012434824
0	0.6461753	0.64617455	-9.8141564e-11	0.062579066	0.062579066	0	94270.01	94269.91	-1.30919525e-05	627550.1	277094.88	-9.9478595e-05	277095.3	627549.56	-4.6309e-05
0	0.6459141	0.64591336	-6.0357064e-10	0.06222535	0.06222535	0	94231.9	94231.79	-8.4002975e-05	627753.56	276525.78	-0.0003876235	276526.25	627753	-0.00047080818
0	0.64564925	0.6456485	-2.4208252e-10	0.061871815	0.061871815	0	94193.266	94193.16	-3.6103407e-05	627958.25	275950.28	-0.00023326016	275950.75	627957.7	-0.00011748765
0	0.6453862	0.6453855	-2.3390406e-10	0.061518326	0.061518326	0	94154.89	94154.77	-3.507571e-05	628161.4	275378.84	-0.00015479213	275379.3	628160.8	-0.00017065725
0	0.6451187	0.645118	-4.923435e-10	0.061164834	0.061164837	0	94115.87	94115.75	-6.881095e-05	628365.4	274800.38	-0.00043564764	274800.84	628364.8	-0.000271851
0	0.6448517	0.6448509	-5.7249247e-11	0.060811117	0.060811117	0	94076.914	94076.79	-8.802439e-06	628570.2	274221.62	-0.00017151482	274222.16	628569.56	6.260291e-05
0	0.6445824	0.6445815	-1.2104126e-10	0.060457584	0.060457584	0	94037.62	94037.484	-1.3538777e-05	628774.56	273640.22	3.4302964e-05	273640.72	628773.94	-0.00020924807
0	0.6443118	0.64431095	-1.7174774e-11	0.060104087	0.060104083	0	93998.13	93998.01	-1.7426149e-06	628980	273055.94	6.0030186e-05	273056.44	628979.4	-6.0030186e-05
0	0.6440389	0.644038	-3.5167394e-10	0.059750557	0.059750557	0	93958.32	93958.21	-5.2591222e-05	629184.44	272469.4	-0.00036532656	272469.88	629183.9	-0.00014321487
0	0.6437634	0.6437626	-2.1264006e-10	0.059396837	0.059396837	0	93918.14	93918.02	-3.0205325e-05	629390.6	271877.62	-2.186814e-05	271878.12	629390.06	-0.0002752813
0	0.6434894	0.6434886	-3.7457365e-10	0.05904351	0.059043508	0	93878.164	93878.055	-5.5048757e-05	629596.44	271288.22	-0.0003018661	271288.75	629595.8	-0.00023025865
0	0.6432116	0.64321077	-4.3100504e-10	0.058689974	0.058689974	0	93837.64	93837.52	-5.8489306e-05	629802.25	270693.47	-0.00028385702	270693.94	629801.56	-0.00030272367
0	0.64293337	0.6429326	-4.0565182e-10	0.05833627	0.05833627	0	93797.055	93796.94	-5.9338272e-05	630009.56	270096.7	-0.00026927827	270097.22	630008.9	-0.00030615396
0	0.6426536	0.6426528	-4.1464812e-10	0.05798275	0.057982747	0	93756.23	93756.1	-5.9606366e-05	630215.56	269498.97	-0.0003807629	269499.47	630214.9	-0.00022639956
0	0.6423681	0.64236724	-3.5330963e-10	0.057629228	0.057629228	0	93714.58	93714.45	-5.7372243e-05	630424.56	268890.28	-0.0001886663	268890.8	630424	-0.00031387212
0	0.64208806	0.6420873	-3.0260316e-10	0.057275698	0.057275698	0	93673.734	93673.61	-4.664846e-05	630629.5	268293.38	-0.00027056463	268293.9	630628.75	-0.00021010566
0	0.64180267	0.64180183	-3.7334688e-10	0.056922033	0.056922033	0	93632.086	93631.97	-5.5763678e-05	630836.9	267686.25	-0.00025212677	267686.78	630836.25	-0.00025898736
0	0.6415154	0.6415146	-3.966555e-10	0.05656852	0.05656852	0	93590.18	93590.055	-5.9517002e-05	631044.75	267076.28	-0.00026241769	267076.8	631044.1	-0.00028299945
0	0.641226	0.64122516	-1.394428e-10	0.05621498	0.05621498	0	93547.97	93547.836	-2.2162487e-05	631252.5	266463.44	-0.00015908	266464	631251.8	-2.31545e-05
0	0.6409365	0.64093566	-3.5167394e-10	0.055861466	0.05586147	0	93505.72	93505.6	-4.4503704e-05	631460.8	265849.78	-0.00022982986	265850.34	631460.1	-0.0002812843
0	0.6406434	0.64064246	-3.8520565e-10	0.055507764	0.055507764	0	93462.96	93462.83	-5.562963e-05	631669.1	265231.06	-0.0002384056	265231.62	631668.4	-0.00029028882
0	0.6403486	0.64034766	-2.9197117e-10	0.0551544	0.055154398	0	93419.96	93419.82	-4.646973e-05	631878	264609.4	-0.000138927	264609.97	631877.4	-0.00031215698
0	0.64005595	0.640055	-4.6617243e-10	0.054800887	0.054800887	0	93377.25	93377.125	-6.8274756e-05	632086.8	263990.9	-0.00032244786	263991.47	632086.06	-0.0003310236
0	0.6397583	0.63975745	-4.813026e-10	0.054447185	0.054447185	0	93333.836	93333.7	-7.1849354e-05	632295.6	263365.44	-0.0002881449	263366.03	632294.94	-0.00041849614
0	0.639459	0.63945806	-4.494066e-10	0.054093692	0.054093692	0	93290.17	93290.04	-6.327032e-05	632505.5	262736.5	-0.00026091692	262737.03	632504.8	-0.0003739023
0	0.6391594	0.6391584	-7.197048e-10	0.053740114	0.053740114	0	93246.45	93246.33	-0.00010384197	632714.9	262107.67	-0.0003876235	262108.25	632714.1	-0.000642323
0	0.63885784	0.6388568	-3.7048442e-10	0.053386617	0.053386617	0	93202.45	93202.33	-5.0044324e-05	632924	261476.27	-0.00018695115	261476.83	632923.4	-0.000324163
0	0.63855237	0.6385514	3.770272e-10	0.053032953	0.053032953	0	93157.91	93157.77	5.5406217e-05	633134.56	260838.2	0.00027506688	260838.8	633133.9	0.00027356614
0	0.63824576	0.6382448	-9.626052e-10	0.052679464	0.05267946	0	93113.18	93113.04	-0.0001376219	633344.56	260198.97	-0.0008312037	260199.53	633343.8	-0.0005119717
0	0.63794005	0.63793904	9.814156e-12	0.05232586	0.05232586	0	93068.56	93068.43	2.680946e-06	633554.75	259560.62	0.00010805434	259561.19	633554.06	-7.2893796e-05
0	0.63763076	0.63762975	-3.2713856e-11	0.05197238	0.05197238	0	93023.445	93023.31	-4.2895135e-06	633765.75	258916.72	-1.9081024e-05	258917.3	633765.06	1.6293909e-05
0	0.63731927	0.6373183	-1.03048646e-10	0.051618684	0.051618684	0	92978.016	92977.88	-1.9570905e-05	633976.06	258270.36	-3.6446898e-05	258270.98	633975.3	-0.00013978458
0	0.6370071	0.6370061	-2.0282591e-10	0.051265284	0.051265284	0	92932.46	92932.32	-2.5915811e-05	634187.4	257621.94	-3.0872667e-05	257622.58	634186.56	-0.00020238748
0	0.63668907	0.6366881	-2.0936868e-10	0.050911788	0.050911788	0	92886.07	92885.93	-3.503103e-05	634400.3	256963.81	-0.00020410263	256964.39	634399.56	-0.00011791644
0	0.63637555	0.6363746	-5.7249247e-11	0.0505581	0.0505581	0	92840.33	92840.18	-8.400298e-06	634610.3	256314.88	-1.886663e-05	256315.48	634609.56	-5.2312018e-05
0	0.63605696	0.636056	-1.2226803e-10	0.050204635	0.050204635	0	92793.85	92793.71	-1.6443135e-05	634821.7	255657.48	-1.5436333e-05	255658.06	634820.9	-0.000120917946
0	0.63573605	0.6357351	-1.4639451e-10	0.049850997	0.049850997	0	92747.04	92746.9	-2.3056136e-05	635033.9	254996.06	-0.00012627778	254996.69	635033.1	-0.000104624036
0	0.6354141	0.63541317	-1.022308e-10	0.049497522	0.049497522	0	92700.07	92699.92	-1.6264406e-05	635246.1	254333	-0.00026091692	254333.64	635245.4	0.00010376646
0	0.6350898	0.63508886	-3.8765918e-10	0.04914388	0.04914388	0	92652.77	92652.62	-6.023192e-05	635458.44	253666.72	-0.00036018112	253667.36	635457.6	-0.00020667535
0	0.6347641	0.63476306	-4.0319828e-10	0.048790418	0.048790418	0	92605.234	92605.09	-5.710415e-05	635670.8	252998.31	-0.0002744237	252998.95	635670	-0.0002975782
0	0.63443613	0.63443506	-3.631238e-10	0.04843675	0.04843675	0	92557.38	92557.24	-5.433384e-05	635882.94	252326.97	-0.0003213759	252327.66	635882.1	-0.00019724204
0	0.6341062	0.63410515	-3.0260315e-11	0.048083298	0.048083298	0	92509.25	92509.11	-5.3172093e-06	636096.56	251651.45	-9.9478595e-05	251652.12	636095.75	3.8590835e-05
0	0.6337744	0.6337733	-1.8237975e-10	0.047729608	0.047729608	0	92460.84	92460.695	-2.8015886e-05	636309.3	250974.11	-0.00013078006	250974.75	636308.56	-0.00014750274
0	0.6334402	0.6334392	-3.6394165e-10	0.04737617	0.047376163	0	92412.1	92411.945	-5.433384e-05	636522.8	250292.83	-0.0001818057	250293.5	636522	-0.00031387212
0	0.63310415	0.6331031	-3.3613487e-10	0.047022697	0.047022697	0	92363.07	92362.91	-4.8793216e-05	636736.6	249608.52	-0.000277854	249609.19	636735.8	-0.00019895719
0	0.6327671	0.632766	-1.7747266e-10	0.046669014	0.046669014	0	92313.89	92313.734	-2.5468988e-05	636949.4	248923.89	-9.776345e-05	248924.6	636948.5	-0.00015179062
0	0.6324255	0.63242435	-4.874364e-10	0.046315573	0.046315573	0	92264.05	92263.9	-6.9883325e-05	637164.2	248230.75	-0.00043221735	248231.45	637163.4	-0.0002812843
0	0.6320857	0.63208455	-3.6148812e-10	0.045961883	0.045961883	0	92214.47	92214.32	-4.9061313e-05	637377.2	247541.97	-0.0003910538	247542.67	637376.4	-0.00011319978
0	0.63174	0.6317389	-2.2858807e-10	0.045608427	0.045608427	0	92164.05	92163.9	-3.324373e-05	637592.2	246843.12	-0.00021911018	246843.86	637591.3	-0.00011062706
0	0.63139427	0.6313932	-3.5903455e-10	0.0452548	0.0452548	0	92113.625	92113.47	-4.9374088e-05	637806.3	246145.1	-0.0002879305	246145.83	637805.44	-0.00021696625
0	0.63104767	0.6310466	-1.6602282e-10	0.044901345	0.044901345	0	92063.055	92062.88	-2.184971e-05	638020.3	245445.72	-0.00018695115	245446.45	638019.5	-1.9724204e-05
0	0.6306985	0.6306974	-4.57994e-11	0.04454766	0.04454766	0	92012.12	92011.95	-4.825703e-06	638234.1	244743.14	-3.0872667e-05	244743.88	638233.25	-3.0015093e-05
0	0.63034457	0.6303435	-4.089232e-12	0.04419421	0.04419421	0	91960.48	91960.31	-3.932054e-06	638449.56	244032.16	1.886663e-05	244032.9	638448.7	-4.6309e-05
0	0.6299915	0.6299904	-2.6416438e-10	0.043840535	0.043840535	0	91908.96	91908.8	-3.914181e-05	638664.4	243323.03	-0.00018009056	243323.73	638663.5	-0.00019724204
0	0.62963486	0.6296337	-6.5427713e-10	0.043487065	0.043487065	0	91856.945	91856.766	-9.5754454e-05	638879.44	242608.53	-0.0004244992	242609.3	638878.7	-0.00048367179
0	0.62927496	0.62927383	-2.66209e-10	0.04313361	0.04313361	0	91804.43	91804.25	-3.914181e-05	639095.4	241888.75	-0.00016765573	241889.48	639094.5	-0.00019724204
0	0.6289166	0.62891555	-1.7133882e-10	0.04277993	0.04277993	0	91752.15	91751.984	-2.9311675e-05	639309.7	241172.84	-0.00014064215	241173.61	639308.75	-0.00014664516
0	0.62855065	0.6285495	-5.1197185e-10	0.042426463	0.042426463	0	91698.766	91698.6	-7.3860065e-05	639526.75	240443.44	-0.00025041163	240444.19	639526	-0.0004935339
0	0.6281888	0.6281876	-2.6007516e-10	0.042072803	0.042072803	0	91645.97	91645.8	-3.6997055e-05	639740.9	239722.64	-0.00026348964	239723.4	639740	-8.489984e-05
0	0.6278216	0.62782043	-2.3308622e-10	0.041719336	0.041719336	0	91592.42	91592.234	-3.5924677e-05	639956.2	238993.42	-0.00019895719	238994.23	639955.25	-0.00011319978
0	0.62745225	0.62745106	-2.805213e-10	0.041365724	0.041365724	0	91538.516	91538.34	-4.1465297e-05	640172.75	238259.6	-0.00016165272	238260.36	640171.9	-0.00020667535
0	0.6270807	0.6270794	-1.0386649e-10	0.041012254	0.041012254	0	91484.31	91484.13	-1.4387743e-05	640388.25	237523.88	-4.2878706e-05	237524.67	640387.4	-7.889682e-05
0	0.62670434	0.6267031	-6.5427713e-10	0.040658586	0.040658586	0	91429.41	91429.23	-9.329692e-05	640606	236779.27	-0.0004956778	236780.11	640605.1	-0.00042878705
0	0.6263306	0.6263294	8.178464e-13	0.04030513	0.04030513	0	91374.88	91374.7	-1.966027e-06	640821.3	236040.73	-5.7457466e-05	236041.55	640820.44	1.9724204e-05
0	0.6259531	0.6259518	-5.1197185e-10	0.039951462	0.039951462	0	91319.8	91319.62	-7.363665e-05	641036.75	235296.81	-0.0005565656	235297.62	641035.8	-0.00019981476
0	0.6255718	0.6255705	-5.9866356e-10	0.039597984	0.039597984	0	91264.164	91263.984	-8.382424e-05	641253.44	234546.16	-0.0005625686	234546.98	641252.44	-0.00025298435
0	0.6251893	0.62518805	-2.363576e-10	0.03924451	0.03924451	0	91208.38	91208.195	-3.449484e-05	641469.56	233794.6	-0.0001886663	233795.45	641468.6	-0.00014578759
0	0.62480384	0.6248025	-2.518967e-10	0.038890842	0.038890842	0	91152.14	91151.96	-3.7711972e-05	641687	233037.55	-0.00027099342	233038.38	641686.06	-0.00010548162
0	0.62441593	0.6244147	-4.4122814e-10	0.038537364	0.038537364	0	91095.56	91095.36	-6.3046915e-05	641903.75	232277.81	-0.00033273874	232278.66	641902.7	-0.0002744237
0	0.624024	0.62402266	-4.637189e-10	0.03818372	0.03818372	0	91038.37	91038.18	-6.738111e-05	642121.94	231510.72	-0.0004768112	231511.58	642121	-0.0001723724
0	0.6236336	0.6236323	-1.4557666e-10	0.03783024	0.03783024	0	90981.43	90981.24	-2.0822014e-05	642338.1	230748.14	-0.00011663008	230749	642337.1	-8.6614986e-05
0	0.62324005	0.6232386	-4.0810536e-10	0.037476577	0.037476577	0	90924	90923.81	-6.112557e-05	642554.1	229980.95	-0.00025212677	229981.84	642553.1	-0.00030872668
0	0.62284243	0.6228412	-2.4944316e-10	0.037123166	0.037123166	0	90866.01	90865.81	-3.48523e-05	642771.94	229206.64	-0.00023926317	229207.52	642771	-6.7748355e-05
0	0.6224425	0.6224412	-6.771768e-10	0.036769513	0.036769513	0	90807.64	90807.45	-9.593318e-05	642989.44	228429.12	-0.0006551866	228430.02	642988.44	-0.000271851
0	0.6220392	0.62203777	-2.6498223e-10	0.036416043	0.036416043	0	90748.805	90748.6	-4.092911e-05	643207.44	227646.53	-0.00021782382	227647.44	643206.4	-0.00015950878
0	0.6216355	0.6216341	-1.6520497e-10	0.036062386	0.036062386	0	90689.92	90689.71	-2.2698676e-05	643423.1	226865.62	-0.00011319978	226866.52	643422.2	-0.000115772506
0	0.62122774	0.6212263	-2.1100437e-10	0.035708904	0.0357089	0	90630.42	90630.22	-3.1322386e-05	643642.3	226075.6	-0.00021782382	226076.52	643641.25	-8.3184685e-05
0	0.6208203	0.6208189	-4.2609796e-10	0.035355415	0.035355415	0	90570.99	90570.78	-6.380652e-05	643859.25	225288.23	-0.00020924807	225289.17	643858.25	-0.0003807629
0	0.62040836	0.6204069	-2.698893e-10	0.035001762	0.035001762	0	90510.88	90510.68	-3.878435e-05	644076.56	224494.19	-0.00026756313	224495.14	644075.5	-0.000115772506
0	0.619994	0.6199925	-6.608199e-10	0.03464827	0.03464827	0	90450.44	90450.23	-9.6692784e-05	644294.3	223696.28	-0.00061745336	223697.23	644293.25	-0.00031387212
0	0.6195773	0.61957586	-4.3427642e-10	0.034294635	0.03429464	0	90389.64	90389.44	-6.487889e-05	644511.7	222895.53	-0.00038933865	222896.5	644510.6	-0.0002349753
0	0.61915576	0.6191543	6.215633e-11	0.033941142	0.033941142	0	90328.15	90327.93	7.774744e-06	644728.9	222088.22	-2.5727222e-06	222089.16	644727.8	8.3184685e-05
0	0.6187362	0.6187348	-3.5412748e-10	0.033587497	0.033587497	0	90266.945	90266.73	-5.308273e-05	644946.3	221283.38	-0.00025041163	221284.38	644945.3	-0.0002847146
0	0.61831087	0.6183093	-1.570265e-10	0.03323408	0.03323408	0	90204.88	90204.664	-2.6005177e-05	645165.44	220468.72	-0.0001886663	220469.73	645164.3	-4.6309e-05
0	0.61788356	0.617882	-3.259118e-10	0.032880444	0.03288044	0	90142.55	90142.33	-4.700592e-05	645383.25	219652.69	-0.00028642974	219653.7	645382.2	-0.00018695115
0	0.61745405	0.6174526	-4.964328e-10	0.032526962	0.032526962	0	90079.89	90079.67	-6.94365e-05	645600.6	218834.03	-0.0005128293	218835.03	645599.5	-0.00020581778
0	0.6170193	0.61701775	-2.0527945e-10	0.03217332	0.03217332	0	90016.45	90016.24	-2.8686121e-05	645818.25	218007.64	-0.0002186814	218008.66	645817.25	-4.5451427e-05
0	0.6165862	0.61658466	-2.3390406e-10	0.031819817	0.031819817	0	89953.28	89953.055	-3.288627e-05	646036.6	217183.08	-0.00019038146	217184.12	646035.56	-0.00011663008
0	0.6161463	0.6161449	-2.6334654e-10	0.03146631	0.03146631	0	89889.11	89888.89	-4.092911e-05	646255.8	216348.12	-0.00029243276	216349.19	646254.7	-0.00010805434
0	0.6157069	0.6157054	-4.9152565e-10	0.031112675	0.031112675	0	89825	89824.77	-6.863222e-05	646472.8	215515.78	-0.00035846597	215516.84	646471.7	-0.0002881449
0	0.6152615	0.61525995	-2.9278902e-10	0.030759163	0.030759163	0	89760.016	89759.79	-4.258236e-05	646692.2	214672.86	-0.00029843577	214673.94	646691.06	-0.00012177552
0	0.6148176	0.614816	-4.4981552e-10	0.030405559	0.030405559	0	89695.266	89695.03	-6.572786e-05	646908.94	213834.62	-0.00046309002	213835.7	646907.8	-0.00017194361
0	0.61436754	0.6143659	-2.2981483e-10	0.030052043	0.030052043	0	89629.59	89629.36	-3.7354515e-05	647127.56	212985.84	-0.00012606339	212986.92	647126.44	-0.00022982986
0	0.61391723	0.6139156	-2.3226837e-10	0.029698418	0.029698418	0	89563.91	89563.67	-3.6907688e-05	647344.1	212138.88	-0.00029157518	212140	647342.94	-8.404226e-05
0	0.61346143	0.61345977	-5.070648e-10	0.029344989	0.029344993	0	89497.41	89497.18	-7.2832365e-05	647563.44	211281.53	-0.00049267634	211282.66	647562.2	-0.00022639956
0	0.6130028	0.6130011	-2.2368099e-10	0.028991375	0.028991373	0	89430.48	89430.25	-3.1992622e-05	647782.2	210420.53	-0.00014750274	210421.64	647780.94	-0.00017494512
0	0.61254406	0.61254233	-5.5245525e-10	0.028637849	0.028637849	0	89363.56	89363.33	-7.917727e-05	647998.7	209561.83	-0.0004099204	209562.97	647997.5	-0.0003610387
0	0.6120816	0.6120799	-4.494066e-10	0.02828426	0.02828426	0	89296.12	89295.86	-6.595127e-05	648216.3	208696.8	-0.0004373628	208697.94	648215.1	-0.00019895719
0	0.61161584	0.6116141	-6.219722e-10	0.027930733	0.027930735	0	89228.164	89227.914	-8.972233e-05	648434.3	207826.78	-0.0005085414	207827.97	648433	-0.0003807629
0	0.61114323	0.6111415	-3.6762196e-10	0.027577199	0.027577199	0	89159.195	89158.95	-4.9150676e-05	648654.5	206944.83	-0.0002812843	206945.98	648653.3	-0.00020238748
0	0.61067474	0.610673	-4.158749e-10	0.027223593	0.027223593	0	89090.87	89090.61	-6.0857474e-05	648870	206073.39	-0.0002907176	206074.6	648868.75	-0.00032244786
0	0.6101965	0.61019474	-2.731607e-10	0.026870057	0.026870057	0	89021.086	89020.83	-3.7354515e-05	649090.1	205183.8	-0.0001955269	205185	649088.8	-0.00018094813
0	0.6097207	0.60971904	-4.1546597e-10	0.026516477	0.026516477	0	88951.69	88951.44	-6.1751125e-05	649306.25	204301.52	-0.00043907794	204302.72	649305.2	-0.000138927
0	0.60923684	0.6092351	-1.2881081e-10	0.02616293	0.026162934	0	88881.09	88880.836	-1.8498527e-05	649525.9	203404.5	-8.575741e-05	203405.73	649524.7	-8.3184685e-05
0	0.6087555	0.6087537	-3.0628347e-10	0.025809342	0.025809342	0	88810.87	88810.61	-4.1733394e-05	649742.3	202514.16	-0.00014493002	202515.39	649741	-0.00027270857
0	0.6082664	0.6082647	-4.4163706e-10	0.025455894	0.025455894	0	88739.51	88739.26	-6.335969e-05	649961	201610.67	-0.0002881449	201611.92	649959.8	-0.00029329033
0	0.60777694	0.60777515	-9.773264e-11	0.025102317	0.025102317	0	88668.12	88667.84	-1.3672825e-05	650178.3	200708.2	-0.00014578759	200709.48	650177.06	2.5727222e-06
0	0.6072848	0.6072829	-5.1974136e-10	0.024748761	0.024748761	0	88596.29	88596.02	-7.4172836e-05	650394.75	199802.52	-0.00033788418	199803.81	650393.5	-0.00038162048
0	0.60678864	0.6067867	-5.037934e-10	0.024395209	0.024395209	0	88523.93	88523.65	-7.2474904e-05	650611.75	198891	-0.0004673779	198892.31	650610.5	-0.00022296926
0	0.606287	0.6062851	-5.1033616e-10	0.024041649	0.024041649	0	88450.73	88450.46	-7.426221e-05	650829.3	197971.17	-0.00044250823	197972.5	650828	-0.00029329033
0	0.60578465	0.6057828	-1.13271725e-10	0.023688082	0.023688082	0	88377.45	88377.18	-1.724742e-05	651048	197049.23	-8.0611964e-05	197050.53	651046.7	-0.00010633919
0	0.6052785	0.6052766	-1.3698927e-10	0.023334507	0.023334507	0	88303.6	88303.33	-1.505798e-05	651265.3	196123.27	-0.000104624036	196124.62	651263.9	-7.546652e-05
0	0.6047688	0.60476685	-4.1301243e-10	0.022980941	0.022980941	0	88229.24	88228.96	-5.585304e-05	651482.5	195192.38	-0.00044508095	195193.73	651481.2	-0.00015093305
0	0.6042552	0.60425323	-1.1081819e-10	0.0226274	0.0226274	0	88154.31	88154.03	-1.3762189e-05	651700.06	194255.83	-0.00015093305	194257.22	651698.75	4.2878705e-06
0	0.6037416	0.6037397	-5.7780847e-10	0.02227383	0.02227383	0	88079.39	88079.1	-8.391361e-05	651914.94	193321.9	-0.00044250823	193323.3	651913.5	-0.00037990534
0	0.6032227	0.6032207	-5.876226e-10	0.021920267	0.021920267	0	88003.695	88003.4	-8.579027e-05	652131.9	192378.6	-0.00048195664	192379.98	652130.44	-0.00037218715
0	0.60269773	0.6026957	-3.475847e-10	0.021566804	0.021566804	0	87927.09	87926.805	-4.843576e-05	652348.94	191426.36	-0.0004270719	191427.78	652347.56	-8.0611964e-05
0	0.6021727	0.60217065	-2.7929453e-10	0.021213232	0.021213232	0	87850.49	87850.195	-4.1241885e-05	652566.8	190473.4	-0.00029586305	190474.86	652565.44	-8.232711e-05
0	0.6016434	0.6016413	-4.269158e-10	0.020859668	0.020859668	0	87773.28	87772.98	-6.264477e-05	652783.25	189515.92	-0.00043479007	189517.38	652781.9	-0.00018009056
0	0.6011096	0.6011076	-4.5431367e-10	0.020506127	0.020506127	0	87695.414	87695.11	-6.4029926e-05	652998.3	188553.73	-0.00028299945	188555.2	652996.9	-0.0003670417
0	0.600573	0.6005709	-3.4840256e-10	0.020152565	0.020152565	0	87617.125	87616.81	-4.521862e-05	653216.7	187584.1	-0.00017065725	187585.6	653215.25	-0.00029672062
0	0.6000357	0.6000336	-4.0401613e-10	0.019798992	0.019798992	0	87538.734	87538.43	-5.732756e-05	653430.7	186617.78	-0.00028299945	186619.28	653429.4	-0.0002881449
0	0.59948975	0.5994876	-3.6884873e-10	0.019445421	0.019445421	0	87459.086	87458.79	-5.2769952e-05	653647.25	185636.95	-0.00041077798	185638.45	653645.8	-0.00016036635
0	0.5989426	0.59894043	-3.7416473e-10	0.01909186	0.01909186	0	87379.26	87378.945	-5.0625196e-05	653865	184653.12	-0.00031044183	184654.66	653863.44	-0.00020924807
0	0.59839255	0.59839034	-3.3163672e-10	0.018738288	0.018738288	0	87299.02	87298.69	-4.5576082e-05	654078.6	183669.28	-0.00029843577	183670.84	654077.1	-0.0001818057
0	0.59784114	0.59783894	-3.0710132e-10	0.018384757	0.018384757	0	87218.58	87218.25	-4.4012195e-05	654293.8	182682.25	-0.00019724204	182683.83	654292.25	-0.0002512692
0	0.5972809	0.5972786	-2.3308622e-10	0.018031193	0.018031193	0	87136.836	87136.516	-3.4405475e-05	654509.5	181682.11	-0.00023754803	181683.72	654508.06	-8.9187706e-05
0	0.59672195	0.5967196	-2.9278902e-10	0.017677708	0.017677708	0	87055.29	87054.96	-4.0705698e-05	654724.5	180684.48	-0.000277854	180686.1	654723.06	-0.00011319978
0	0.59615475	0.59615254	-2.8154362e-10	0.017324135	0.017324135	0	86972.55	86972.22	-3.9052447e-05	654941.75	179673.2	-0.00026413283	179674.84	654940.25	-9.090285e-05
0	0.59558624	0.5955839	-2.6539115e-10	0.016970571	0.016970571	0	86889.61	86889.27	-3.896308e-05	655154.9	178664.2	-0.00018009056	178665.88	655153.25	-0.00017837541
0	0.5950135	0.5950113	-3.2345826e-10	0.01661704	0.016617037	0	86806.055	86805.73	-4.8927264e-05	655371.4	177646.02	-0.00023926317	177647.67	655369.8	-0.00022725713
0	0.59443796	0.5944356	-2.7438746e-10	0.01626348	0.016263481	0	86722.086	86721.74	-3.9678e-05	655583.94	176627.52	-0.00036532656	176629.22	655582.3	-2.2296927e-05
0	0.59385663	0.59385425	-1.3269558e-10	0.015909908	0.015909908	0	86637.28	86636.94	-1.9436859e-05	655799	175598.58	-0.00011663008	175600.31	655797.4	-4.6309e-05
0	0.5932723	0.59326994	-3.259118e-10	0.015556337	0.015556337	0	86552.03	86551.68	-4.812298e-05	656012.9	174566.5	-0.00035846597	174568.25	656011.4	-0.000109769484
0	0.59268427	0.59268177	-1.2676619e-11	0.015202779	0.015202779	0	86466.24	86465.89	-4.4682432e-07	656227.2	173529.06	6.346048e-05	173530.84	656225.5	-4.7595364e-05
0	0.5920938	0.5920914	-2.1223114e-10	0.014849209	0.014849209	0	86380.11	86379.75	-3.1277705e-05	656440.8	172488.83	-0.00017580269	172490.64	656439.06	-0.00013035127
0	0.59149826	0.5914958	-4.365255e-10	0.014495688	0.014495687	0	86293.23	86292.86	-5.987446e-05	656654.06	171441.75	-0.00023154501	171443.56	656652.44	-0.00035675082
0	0.59089833	0.5908958	-1.1736095e-10	0.01414213	0.014142131	0	86205.695	86205.32	-1.9168763e-05	656867.7	170388.14	-0.00021267838	170389.97	656866.06	3.5589324e-05
0	0.5902926	0.59029	-3.169155e-11	0.0137885995	0.0137885995	0	86117.33	86116.96	-5.4065745e-06	657083.25	169324.52	3.0872667e-05	169326.38	657081.56	-8.232711e-05
0	0.5896845	0.58968186	-3.0628347e-10	0.0134350285	0.0134350285	0	86028.61	86028.234	-4.5620764e-05	657296.44	168259.97	-0.00030872668	168261.86	657294.7	-0.0001526482
0	0.58907205	0.5890695	-3.455401e-10	0.013081465	0.013081467	0	85939.26	85938.875	-5.13848e-05	657509.56	167189.39	-0.0003447448	167191.31	657507.8	-0.0001556497
0	0.5884563	0.58845365	-2.7234284e-10	0.012727947	0.012727947	0	85849.43	85849.05	-4.2537675e-05	657721.94	166114.97	-0.00017151482	166116.9	657720.25	-0.00023326016
0	0.5878376	0.58783495	-2.0527945e-10	0.012374381	0.012374381	0	85759.164	85758.78	-2.9043582e-05	657931.94	165038.72	-8.232711e-05	165040.69	657930.25	-0.00020238748
0	0.58721036	0.5872076	-3.3449918e-10	0.0120208245	0.0120208245	0	85667.66	85667.26	-5.451257e-05	658146.75	163945.75	-0.00028299945	163947.72	658145	-0.0002349753
0	0.58658195	0.58657926	-2.437182e-10	0.011667253	0.011667253	0	85575.984	85575.586	-3.730983e-05	658358.6	162854.19	-0.00033616903	162856.23	658356.75	-6.131655e-05
0	0.58595055	0.5859478	-4.424549e-10	0.0113137	0.0113137	0	85483.87	85483.47	-6.13043e-05	658567.8	161760.89	-0.00034989024	161762.95	658566.1	-0.0002941479
0	0.5853112	0.5853084	-9.078095e-11	0.010960134	0.010960134	0	85390.58	85390.17	-1.22429865e-05	658781.56	160651.88	-7.203622e-05	160653.94	658779.75	-3.944841e-05
0	0.58466864	0.5846659	-3.7866288e-10	0.010606616	0.010606616	0	85296.85	85296.445	-5.7550973e-05	658993.2	159540.77	-0.0003177312	159542.86	658991.44	-0.00025898736
0	0.5840235	0.5840207	-1.709299e-10	0.010253063	0.010253063	0	85202.734	85202.31	-2.3592325e-05	659202	158428.8	-9.090285e-05	158430.92	659200.2	-0.00013549671
0	0.5833708	0.58336794	-5.0624693e-10	0.009899496	0.009899496	0	85107.516	85107.09	-7.265364e-05	659415.06	157301.9	-0.0004039174	157304.06	659413.25	-0.00028986004
0	0.58271796	0.58271503	-5.863959e-10	0.00954593	0.00954593	0	85012.27	85011.85	-8.5924315e-05	659623	156180	-0.00042535676	156182.17	659621.1	-0.00042192647
0	0.5820555	0.5820526	-6.113402e-10	0.009192378	0.009192378	0	84915.625	84915.195	-9.034788e-05	659836	155039.56	-0.0005659989	155041.77	659834.1	-0.00033959936
0	0.5813914	0.5813884	-3.6353273e-10	0.008838853	0.008838854	0	84818.73	84818.3	-5.4825345e-05	660043.7	153901.94	-0.00034002814	153904.17	660041.8	-0.0001723724
0	0.5807231	0.5807201	-3.4472225e-10	0.0084852865	0.008485286	0	84721.26	84720.81	-5.1965668e-05	660253.5	152756.62	-0.00029672062	152758.9	660251.6	-0.00021267838
0	0.5800482	0.58004516	-3.843878e-11	0.008131741	0.008131741	0	84622.77	84622.33	-4.2895135e-06	660463.5	151601.77	-0.0001955269	151604.05	660461.44	0.00012692096
0	0.57936895	0.5793659	-2.2613453e-10	0.0077781687	0.0077781687	0	84523.67	84523.24	-3.3645872e-05	660674.8	150439.45	-0.00027613886	150441.78	660672.8	-7.375137e-05
0	0.57868725	0.57868415	-3.030121e-10	0.0074246046	0.0074246046	0	84424.234	84423.77	-4.548672e-05	660881.56	149278.23	-0.00041249313	149280.6	660879.56	-6.5175635e-05
0	0.5779987	0.5779956	-8.546495e-11	0.007071065	0.007071065	0	84323.78	84323.32	-1.0679101e-05	661090.06	148105.73	-7.203622e-05	148108.14	661088.06	-3.4302964e-06
0	0.577304	0.5773008	-2.6600452e-10	0.0067175142	0.0067175142	0	84222.44	84221.97	-3.9186492e-05	661301.25	146921.94	-0.00022639956	146924.38	661299.3	-0.00014407244
0	0.5766054	0.57660216	-2.586439e-10	0.0063639735	0.0063639735	0	84120.516	84120.04	-3.3913966e-05	661509.7	145735.45	-0.000364469	145737.94	661507.6	2.4012075e-05