# t (s)	mx ()	my ()	mz ()	B_extx (T)	B_exty (T)	B_extz (T)	m_fullx (A/m)	m_fully (A/m)	m_fullz (A/m)	m_full.region1x (A/m)	m_full.region1y (A/m)	m_full.region1z (A/m)	m_full.region2x (A/m)	m_full.region2y (A/m)	m_full.region2z (A/m)
0	0.63501436	0.63501453	-3.0755112e-10	0.070709854	0.070709854	0	17119.496	17119.504	-6.5270897e-06	652212.6	236807.75	-0.00017705983	236807.39	652212.6	-0.0001618937
0	0.63490254	0.6349021	-2.9322558e-10	0.07056971	0.07056971	0	17116.48	17116.473	-7.525688e-06	652295.7	236567.61	-0.00017568415	236567.81	652295.3	-0.00021512686
0	0.63478655	0.63478607	-1.3248934e-10	0.07042712	0.07042712	0	17113.355	17113.344	-6.2459826e-06	652383	236317.84	-0.0001410799	236318.11	652382.75	-0.00018327565
0	0.63466895	0.63466847	-3.4178743e-10	0.070287034	0.070287034	0	17110.188	17110.172	-9.292218e-06	652472.25	236064.05	-0.0001689639	236064.33	652471.94	-0.00031358353
0	0.6345537	0.6345532	-3.1894798e-10	0.0701447	0.0701447	0	17107.078	17107.064	-8.451892e-06	652558.5	235816.34	-0.00024653238	235816.66	652558.1	-0.00019237667
0	0.6344371	0.63443655	-1.997265e-10	0.0700046	0.0700046	0	17103.932	17103.918	-1.0286532e-05	652646.25	235565.25	-0.00028164306	235565.56	652645.9	-0.00025253932
0	0.63431865	0.6343182	-2.1360816e-10	0.06986236	0.06986236	0	17100.744	17100.729	-7.995403e-06	652734.5	235311.39	-9.401661e-05	235311.67	652734.1	-0.00032118685
0	0.63420296	0.6342024	-4.8597487e-10	0.069720015	0.069720015	0	17097.621	17097.611	-1.1523041e-05	652821.5	235062.4	-0.00020161294	235062.69	652821.1	-0.00039678163
0	0.6340853	0.63408476	-1.858062e-10	0.06957992	0.06957992	0	17094.45	17094.436	-9.061462e-06	652909.8	234809.31	-0.00015532624	234809.61	652909.3	-0.0003152379
0	0.6339676	0.6339671	-2.5151797e-10	0.069437355	0.069437355	0	17091.277	17091.262	-7.837754e-06	652997.56	234556.75	-0.00017158645	234557.03	652997.2	-0.00023543029
0	0.63384855	0.63384813	-2.6051372e-10	0.069297224	0.069297224	0	17088.07	17088.057	-7.537511e-06	653086.7	234301.14	-0.00021878717	234301.42	653086.25	-0.0001726378
0	0.63373137	0.63373077	-2.8935462e-10	0.06915493	0.06915493	0	17084.908	17084.895	-5.5828414e-06	653173.5	234050.03	-0.00021611866	234050.33	653173.06	-7.3799805e-05
0	0.63361293	0.63361245	-3.6440195e-10	0.06901481	0.06901481	0	17081.715	17081.7	-8.982204e-06	653261.6	233796.16	-0.00023649255	233796.42	653261.1	-0.00022995574
0	0.63349426	0.6334938	-2.1096731e-10	0.06887121	0.06887121	0	17078.52	17078.504	-5.5264836e-06	653349.56	233542.19	-0.00012704747	233542.47	653349.06	-0.00015994433
0	0.6333749	0.63337445	-1.973799e-10	0.06873101	0.06873101	0	17075.299	17075.285	-9.30971e-06	653437.7	233286.92	-0.00014519125	233287.2	653437.25	-0.0003382645
0	0.6332559	0.6332554	-2.3728874e-10	0.068588786	0.068588786	0	17072.09	17072.076	-7.5903454e-06	653526.06	233031.89	-0.00021472106	233032.17	653525.7	-0.00017944766
0	0.63313675	0.6331363	-2.5755512e-10	0.068448305	0.068448305	0	17068.879	17068.863	-7.80956e-06	653613.9	232777.2	-0.00018752147	232777.52	653613.5	-0.00021803111
0	0.63301605	0.6330156	-2.5864252e-10	0.0683061	0.0683061	0	17065.625	17065.611	-3.5833648e-06	653702.4	232519.84	-0.000113033646	232520.14	653701.9	-7.305145e-05
0	0.63289636	0.6328959	-2.633552e-10	0.068165876	0.068165876	0	17062.398	17062.387	-8.969088e-06	653790.8	232263.81	-0.0001995817	232264.14	653790.3	-0.00026618547
0	0.63277584	0.63277537	-1.3523722e-10	0.068023674	0.068023674	0	17059.15	17059.135	-2.6718537e-06	653878.94	232006.95	-0.00013310632	232007.23	653878.44	-5.643757e-06
0	0.63265485	0.6326543	-3.29102e-10	0.067881495	0.067881495	0	17055.887	17055.873	-8.104519e-06	653967.75	231748.81	-0.00024622836	231749.12	653967.3	-0.0001746415
0	0.6325346	0.6325342	-3.1816286e-10	0.06774126	0.06774126	0	17052.648	17052.635	-9.16027e-06	654056.25	231492.08	-0.00025437906	231492.36	654055.75	-0.00022131622
0	0.632414	0.6324134	-2.453642e-10	0.06759908	0.06759908	0	17049.39	17049.379	-9.865203e-06	654144.4	231234.78	-0.00015991165	231235.11	654144	-0.00035239098
0	0.63229156	0.63229096	-1.3583978e-10	0.06745857	0.06745857	0	17046.092	17046.08	-5.2484547e-06	654233.25	230974.64	-0.00026550345	230974.92	654232.8	-7.050238e-06
0	0.6321699	0.6321694	-1.8490888e-10	0.0673164	0.0673164	0	17042.812	17042.799	-9.617599e-06	654321.94	230715.58	-0.00024891138	230715.88	654321.56	-0.0002505331
0	0.6320488	0.63204825	-7.6056224e-11	0.06717612	0.06717612	0	17039.55	17039.535	-6.2533704e-06	654410.25	230457.77	-0.00013660575	230458.1	654409.8	-0.00018813349
0	0.6319257	0.6319251	-2.0323934e-10	0.06703257	0.06703257	0	17036.23	17036.215	-1.6532697e-06	654499.56	230196.11	-0.00020601045	230196.45	654499.06	0.00012015571
0	0.6318028	0.6318022	-3.4331882e-10	0.06689235	0.06689235	0	17032.918	17032.9	-9.2798555e-06	654589.6	229933.98	-0.0003114265	229934.3	654589.2	-0.00017047889
0	0.63168097	0.6316804	-3.0459116e-10	0.06675015	0.06675015	0	17029.63	17029.62	-6.470362e-06	654677.1	229675.89	-0.0002357839	229676.22	654676.7	-0.00010022376
0	0.6315576	0.631557	-3.8837658e-10	0.06660991	0.06660991	0	17026.307	17026.291	-9.891906e-06	654766	229414.23	-0.00023832744	229414.58	654765.56	-0.0002753619
0	0.6314351	0.6314346	-1.5522246e-10	0.06646746	0.06646746	0	17023.004	17022.988	-4.3608006e-06	654854.7	229154.12	-9.1530936e-05	229154.44	654854.25	-0.00013492662
0	0.6313112	0.6313105	-2.63516e-10	0.066327125	0.066327125	0	17019.662	17019.648	-6.113456e-06	654944	228891.28	-0.0002086046	228891.62	654943.56	-0.0001088688
0	0.63118774	0.63118714	-7.9438046e-11	0.066185005	0.066185005	0	17016.336	17016.318	-6.1751357e-06	655032.8	228629.62	-0.00018096485	228629.97	655032.4	-0.00013971163
0	0.63106334	0.6310627	-2.3409474e-10	0.06604292	0.06604292	0	17012.979	17012.963	-6.089801e-06	655122	228366.28	-0.00020145466	228366.62	655121.5	-0.000114790346
0	0.63093907	0.6309385	-3.8003783e-10	0.065902665	0.065902665	0	17009.629	17009.613	-4.4195976e-06	655211.06	228103.2	-0.00018780917	228103.55	655210.7	-4.1701715e-05
0	0.6308138	0.63081324	-3.6913103e-10	0.06576051	0.06576051	0	17006.254	17006.238	-1.0640682e-05	655300.6	227838.3	-0.00022768701	227838.66	655300.2	-0.00032488647
0	0.6306882	0.6306876	-2.1234058e-10	0.065620236	0.065620236	0	17002.867	17002.85	-8.173849e-06	655391.25	227571.84	-0.00012519596	227572.17	655390.75	-0.0002992742
0	0.6305642	0.6305637	-2.0843503e-10	0.06547782	0.06547782	0	16999.521	16999.508	-4.9509367e-06	655478.9	227310.66	-0.00010240571	227310.98	655478.4	-0.00015469776
0	0.63043815	0.6304376	-2.8593217e-10	0.06533745	0.06533745	0	16996.129	16996.113	-9.580885e-06	655568.44	227044.7	-0.00024076703	227045.05	655567.94	-0.00025677084
0	0.63031274	0.63031214	2.9855694e-11	0.065195374	0.065195374	0	16992.746	16992.73	-1.9061996e-06	655657.8	226779.66	-7.2303505e-05	226779.97	655657.3	-2.6685953e-05
0	0.6301871	0.6301865	-1.5766453e-10	0.06505365	0.06505365	0	16989.36	16989.34	-5.180453e-06	655747.06	226514.58	-0.00019186387	226514.92	655746.56	-7.7158445e-05
0	0.63005996	0.6300594	-3.0936315e-10	0.06491158	0.06491158	0	16985.932	16985.914	-8.789794e-06	655836.6	226246.94	-0.00018631172	226247.33	655836.25	-0.00027014464
0	0.6299333	0.6299328	-2.0767187e-10	0.0647712	0.0647712	0	16982.518	16982.502	-6.1212622e-06	655926.2	225980.06	-0.00015825038	225980.4	655925.8	-0.00015962846
0	0.62980515	0.6298047	-1.5546017e-10	0.06462915	0.06462915	0	16979.062	16979.045	-8.52227e-06	656017.75	225709.23	-0.00013373171	225709.6	656017.25	-0.0003088321
0	0.62967944	0.6296789	-2.0397689e-10	0.06448846	0.06448846	0	16975.674	16975.656	-3.873692e-06	656105.6	225445.27	-0.00019472586	225445.61	656105.2	-6.436017e-06
0	0.6295526	0.629552	-4.1956275e-10	0.06434636	0.06434636	0	16972.252	16972.236	-8.334008e-06	656195	225178.25	-0.00022615226	225178.6	656194.56	-0.00020663507
0	0.6294241	0.6294235	-1.2630655e-10	0.06420602	0.06420602	0	16968.787	16968.771	-5.1370234e-06	656284.9	224908.52	-0.0001242382	224908.9	656284.44	-0.00014252882
0	0.6292947	0.62929416	-1.9800371e-10	0.06406402	0.06406402	0	16965.3	16965.285	-6.41138e-06	656376.7	224635.58	-0.00017066591	224635.94	656376.2	-0.0001622788
0	0.62916654	0.62916595	-3.0628625e-10	0.063922	0.063922	0	16961.844	16961.828	-1.0298683e-05	656466.44	224366.36	-0.00020176973	224366.72	656465.94	-0.00033304363
0	0.62903947	0.62903875	-2.5437313e-10	0.06378159	0.06378159	0	16958.418	16958.4	-5.0925496e-06	656554.44	224100.34	-0.00014831779	224100.72	656553.94	-0.000116139694
0	0.6289091	0.6289086	-3.4140435e-10	0.06363921	0.06363921	0	16954.902	16954.887	-9.370329e-06	656646.2	223826.2	-0.00022709552	223826.56	656645.75	-0.00025950823
0	0.62878	0.6287795	-1.00401035e-10	0.06349885	0.06349885	0	16951.424	16951.408	-5.0966687e-06	656736.1	223555.52	-9.0979935e-05	223555.89	656735.7	-0.00017369144
0	0.6286518	0.62865114	-1.424755e-10	0.06335679	0.06335679	0	16947.965	16947.95	-4.6003743e-06	656824.6	223287.44	-0.00012814792	223287.83	656824.2	-0.000110750756
0	0.62852246	0.6285218	-2.1627253e-10	0.0632164	0.0632164	0	16944.48	16944.463	-1.0533095e-05	656914.5	223016.55	-0.0001810282	223016.89	656914.06	-0.00036595823
0	0.6283907	0.6283901	-2.0198974e-10	0.06307295	0.06307295	0	16940.928	16940.912	-3.8564376e-06	657006.4	222740.28	-0.000200446	222740.67	657005.9	1.8015527e-07
0	0.62826174	0.62826115	-2.3778055e-10	0.06293256	0.06293256	0	16937.451	16937.434	-3.9475126e-06	657094.94	222471.16	-0.00014379338	222471.55	657094.4	-6.120201e-05
0	0.6281308	0.6281302	-2.7263608e-10	0.0627905	0.0627905	0	16933.922	16933.904	-7.0933106e-06	657185.44	222197.3	-0.00019784753	222197.67	657184.9	-0.00017051001
0	0.6280004	0.6279997	-2.3939042e-10	0.062649734	0.062649734	0	16930.404	16930.387	-3.3302476e-07	657275.4	221924.73	-0.00017033386	221925.12	657274.9	0.00015303979
0	0.62786865	0.627868	-2.2186729e-10	0.06250778	0.06250778	0	16926.855	16926.84	-6.6509797e-06	657365.8	221649.89	-0.00013862242	221650.25	657365.4	-0.00020676476
0	0.62773746	0.6277369	-1.9944509e-10	0.06236728	0.06236728	0	16923.318	16923.303	-4.5958295e-06	657456.25	221375.9	-0.00014722388	221376.28	657455.75	-9.143878e-05
0	0.62760425	0.62760353	-2.8205754e-10	0.06222535	0.06222535	0	16919.725	16919.707	-5.769536e-06	657548.25	221097.23	-0.00016197795	221097.62	657547.8	-0.00013763561
0	0.627473	0.62747246	-2.1012066e-10	0.06208344	0.06208344	0	16916.19	16916.172	-5.606084e-06	657637.5	220824.34	-0.00014839787	220824.73	657637.1	-0.00014272756
0	0.6273413	0.6273406	-1.500785e-10	0.061942905	0.061942905	0	16912.637	16912.62	-8.22497e-06	657727.6	220549.77	-0.00020353329	220550.17	657727.2	-0.00022359159
0	0.62720644	0.6272058	-2.7183308e-10	0.061800998	0.061800998	0	16909	16908.986	-1.1080252e-05	657820.25	220268.34	-0.00022433586	220268.73	657819.8	-0.0003510646
0	0.6270746	0.627074	-1.6725127e-10	0.06166019	0.06166019	0	16905.45	16905.432	-7.383251e-06	657909.3	219994.72	-0.00016901191	219995.1	657908.8	-0.0002144023
0	0.6269418	0.6269412	-2.2464035e-10	0.06151828	0.06151828	0	16901.87	16901.848	-5.826071e-06	657999.8	219718.44	-0.00021889003	219718.84	657999.2	-8.365942e-05
0	0.6268079	0.6268073	-1.6221303e-10	0.06137774	0.06137774	0	16898.258	16898.24	-3.5947392e-06	658090.5	219440.17	-0.0001597101	219440.58	658090	-2.6965688e-05
0	0.62667423	0.6266735	-1.9832483e-10	0.061235856	0.061235856	0	16894.652	16894.637	-5.7488255e-06	658181	219162.45	-0.0001449555	219162.86	658180.56	-0.00015358256
0	0.62653846	0.62653786	-2.3259407e-10	0.061093815	0.061093815	0	16890.994	16890.975	-8.839477e-06	658273.75	218879.64	-0.00021297373	218880.06	658273.3	-0.0002460627
0	0.6264052	0.6264046	-3.2800637e-10	0.06095187	0.06095187	0	16887.4	16887.383	-5.441749e-06	658363.25	218603.55	-0.00014374922	218603.95	658362.75	-0.00013884228
0	0.62627053	0.62626994	-1.9540845e-10	0.06081137	0.06081137	0	16883.77	16883.754	-9.00595e-06	658454.06	218324.27	-0.0001363236	218324.62	658453.56	-0.00033135785
0	0.6261341	0.6261334	-1.512546e-10	0.060669135	0.060669135	0	16880.09	16880.074	-5.480692e-06	658546.44	218040.78	-0.00012459345	218041.22	658545.94	-0.00016002035
0	0.62599987	0.62599915	-2.6021935e-10	0.060528617	0.060528617	0	16876.473	16876.453	-6.530206e-06	658636.1	217763.3	-0.00022150902	217763.72	658635.56	-0.00011760633
0	0.62586284	0.6258622	-1.7664517e-10	0.0603867	0.0603867	0	16872.777	16872.762	-5.9117588e-06	658728.5	217479	-0.0001281531	217479.39	658728.06	-0.00017884612
0	0.6257268	0.62572616	-2.4189287e-10	0.060244866	0.060244866	0	16869.113	16869.098	-4.133919e-06	658819.5	217197.62	-0.00012561989	217198.06	658819.06	-8.905565e-05
0	0.62559146	0.6255908	-2.9076802e-10	0.06010433	0.06010433	0	16865.463	16865.443	-7.063506e-06	658909.4	216918.19	-0.00020536254	216918.62	658908.94	-0.00016144724
0	0.6254548	0.625454	-2.1183649e-10	0.05996244	0.05996244	0	16861.777	16861.762	-7.4531717e-06	659000.6	216635.58	-0.00014958179	216636	659000.1	-0.00023746339
0	0.62531763	0.62531704	-1.5395946e-10	0.059821885	0.059821885	0	16858.082	16858.062	-8.578644e-06	659092	216352.33	-0.00014831219	216352.77	659091.5	-0.00029717913
0	0.6251801	0.62517947	-2.1221744e-10	0.059679706	0.059679706	0	16854.371	16854.355	-1.363543e-06	659183.44	216068.23	-0.00010918948	216068.67	659182.94	3.8380327e-05
0	0.6250412	0.62504053	-7.633806e-11	0.059539147	0.059539147	0	16850.629	16850.611	-3.705108e-06	659276.25	215780.92	-0.000101956604	215781.39	659275.8	-9.0450645e-05
0	0.62490475	0.62490416	-2.803874e-10	0.05939726	0.05939726	0	16846.951	16846.932	-9.8715145e-06	659366	215500.27	-0.0002308736	215500.72	659365.5	-0.0002817568
0	0.6247662	0.6247655	-1.8137075e-10	0.059255093	0.059255093	0	16843.213	16843.195	-5.976259e-06	659457.5	215214.73	-0.00012472231	215215.14	659457	-0.00018562643
0	0.62462795	0.62462723	-1.5179626e-10	0.059113316	0.059113316	0	16839.488	16839.469	-4.250467e-06	659549	214929.64	-0.00014904937	214930.08	659548.5	-7.167852e-05
0	0.62448776	0.624487	-3.745906e-10	0.058972638	0.058972638	0	16835.707	16835.688	-4.0056802e-06	659642	214640.36	-0.0001913408	214640.78	659641.56	-1.6675245e-05
0	0.6243495	0.6243488	-1.1092029e-10	0.058830876	0.058830876	0	16831.98	16831.96	-8.139622e-07	659732.4	214356.45	-6.1700805e-05	214356.88	659731.9	1.9431529e-05
0	0.6242086	0.624208	-1.514327e-10	0.058689874	0.058689874	0	16828.182	16828.164	-3.0938486e-06	659825.4	214066.31	-8.845802e-05	214066.73	659824.9	-7.220637e-05
0	0.6240702	0.6240696	-3.576391e-10	0.058548026	0.058548026	0	16824.455	16824.434	-5.377635e-06	659915.44	213782.44	-0.0002289296	213782.88	659914.94	-5.033243e-05
0	0.62392974	0.623929	-1.858339e-10	0.058407396	0.058407396	0	16820.664	16820.645	-1.0292004e-05	660007.6	213493.6	-0.00016927492	213494.02	660007	-0.00036519166
0	0.623789	0.62378824	-3.561463e-10	0.05826568	0.05826568	0	16816.871	16816.852	-8.267931e-06	660099.3	213204.81	-0.00015196163	213205.3	660098.8	-0.00027739423
0	0.62364817	0.62364745	-2.9951736e-10	0.058123965	0.058123965	0	16813.074	16813.057	-6.184246e-06	660191.2	212915.81	-0.00016214463	212916.23	660190.7	-0.00015900494
0	0.62350696	0.62350625	-2.9875957e-10	0.05798323	0.05798323	0	16809.266	16809.246	-7.3701403e-06	660282.94	212626.38	-0.00020953223	212626.8	660282.4	-0.00017320116
0	0.62336564	0.623365	-2.5200667e-10	0.057841532	0.057841532	0	16805.457	16805.438	-6.999745e-06	660374.8	212336.62	-0.00023890192	212337.06	660374.25	-0.00012459671
0	0.6232241	0.6232234	-3.8278078e-10	0.057700448	0.057700448	0	16801.639	16801.621	-5.6827034e-06	660466.7	212046.58	-0.00012930689	212047.08	660466.2	-0.0001657974
0	0.6230819	0.6230812	-3.4356884e-10	0.057558686	0.057558686	0	16797.809	16797.791	-6.979573e-06	660558.56	211755.73	-0.0003135184	211756.2	660558	-4.893271e-05
0	0.6229389	0.6229382	-2.1466395e-10	0.057418007	0.057418007	0	16793.951	16793.934	-7.180987e-06	660651.06	211462.94	-0.00020773328	211463.4	660650.5	-0.0001651773
0	0.62279636	0.6227957	-1.318315e-10	0.05727468	0.05727468	0	16790.11	16790.09	-5.7033963e-06	660743.06	211171.39	-0.00011773481	211171.84	660742.56	-0.0001784441
0	0.6226519	0.6226512	-2.8307218e-10	0.05713398	0.05713398	0	16786.215	16786.193	-8.046949e-06	660836.75	210875.44	-0.00018333532	210875.92	660836.2	-0.00023454493
0	0.62251	0.62250924	-3.0492103e-10	0.056992244	0.056992244	0	16782.387	16782.37	-7.671212e-06	660927.3	210586.14	-0.00015912857	210586.64	660926.8	-0.00023923955
0	0.6223641	0.6223633	-2.0690123e-10	0.056851108	0.056851108	0	16778.457	16778.438	-5.0499484e-06	661021.7	210287.67	-0.00015733676	210288.17	661021.06	-0.00010490841
0	0.6222219	0.6222212	-9.459415e-11	0.05670946	0.05670946	0	16774.623	16774.602	-5.729944e-07	661112	209998.12	-0.000109738045	209998.58	661111.5	7.9982296e-05
0	0.62207586	0.62207514	-4.160956e-10	0.05656864	0.05656864	0	16770.684	16770.666	-8.055329e-06	661205	209700.67	-0.00011289297	209701.19	661204.56	-0.00030542244
0	0.6219305	0.62192976	-3.1476552e-10	0.05642701	0.05642701	0	16766.766	16766.748	-7.321364e-06	661298.75	209403.42	-0.0002802088	209403.9	661298.25	-9.9991616e-05
0	0.621786	0.6217852	-4.135515e-10	0.056285422	0.056285422	0	16762.871	16762.85	-4.304126e-06	661390.9	209109.08	-0.00020748907	209109.61	661390.25	-1.6025357e-05
0	0.6216414	0.6216407	-9.658077e-11	0.056144662	0.056144662	0	16758.973	16758.955	2.609002e-07	661482.06	208815.39	-0.00014968173	208815.86	661481.6	0.00016323035
0	0.6214949	0.62149423	-2.9216332e-10	0.056002956	0.056002956	0	16755.021	16755.004	-6.61003e-06	661574.94	208517.5	-0.00016054571	208518	661574.4	-0.00018271492
0	0.6213489	0.6213482	-7.855467e-11	0.055861782	0.055861782	0	16751.086	16751.068	-3.9277193e-06	661667.3	208220.66	-0.00017260599	208221.16	661666.75	-3.1361527e-05
0	0.62120295	0.62120223	-1.3970342e-10	0.055720203	0.055720203	0	16747.15	16747.13	-1.6490307e-06	661759.9	207923.77	-0.00015593386	207924.28	661759.25	7.029925e-05
0	0.62105465	0.62105393	-2.7289976e-10	0.055579327	0.055579327	0	16743.154	16743.133	-6.758961e-06	661854.06	207621.97	-0.00013498425	207622.47	661853.56	-0.0002160104
0	0.62090886	0.6209081	-4.92565e-10	0.055437762	0.055437762	0	16739.223	16739.205	-6.701585e-06	661945	207326.89	-0.00031801563	207327.38	661944.5	-2.999948e-05
0	0.620761	0.6207603	-3.5721948e-10	0.05529525	0.05529525	0	16735.238	16735.217	-9.5110445e-06	662038	207026.95	-0.0002571952	207027.48	662037.4	-0.00023671587
0	0.6206133	0.62061244	-3.4430103e-10	0.055153705	0.055153705	0	16731.254	16731.232	-4.700038e-06	662131.06	206726.94	-0.00014102724	206727.47	662130.44	-0.000103047
0	0.6204646	0.62046385	-1.9150749e-10	0.055012755	0.055012755	0	16727.246	16727.225	-4.3126906e-06	662223.9	206426.06	-0.00018446287	206426.61	662223.25	-3.9496324e-05
0	0.6203165	0.6203158	-2.63493e-10	0.05487082	0.05487082	0	16723.258	16723.234	-6.723583e-06	662316.44	206126.17	-0.00016518327	206126.72	662315.9	-0.0001839742
0	0.6201676	0.6201668	-3.5127906e-10	0.05472997	0.05472997	0	16719.242	16719.22	-6.6821244e-06	662409.56	205824.66	-0.00020499577	205825.2	662408.9	-0.00014200875
0	0.62001824	0.62001747	-1.6406557e-10	0.054588366	0.054588366	0	16715.213	16715.191	-5.4058446e-06	662502.5	205522.48	-8.636647e-05	205523.03	662501.94	-0.00019436049
0	0.6198669	0.61986613	-1.4574489e-10	0.05444749	0.05444749	0	16711.135	16711.115	-5.5174314e-06	662597.44	205215.77	-0.000114334216	205216.3	662596.9	-0.00017218749
0	0.61971796	0.6197172	-1.4546037e-10	0.05430601	0.05430601	0	16707.12	16707.098	-3.0462063e-06	662689.2	204915.5	-0.00024748128	204916.03	662688.6	8.929097e-05
0	0.6195667	0.6195659	-3.0121564e-10	0.05416443	0.05416443	0	16703.04	16703.02	-8.799534e-06	662783.6	204609.17	-0.00016194483	204609.72	662783	-0.00029501732
0	0.619417	0.61941624	-2.606758e-10	0.054023527	0.054023527	0	16699.004	16698.982	-4.0257473e-06	662875.56	204307.78	-0.00020581922	204308.31	662874.94	-3.238922e-06
0	0.6192658	0.61926496	-3.5757594e-10	0.053881653	0.053881653	0	16694.926	16694.908	-6.7638466e-06	662968.94	204002.6	-0.00020672216	204003.17	662968.44	-0.0001445262
0	0.6191142	0.61911345	-1.4748011e-10	0.053740732	0.053740732	0	16690.842	16690.82	-2.7748756e-06	663061.94	203697.42	-0.0001091011	203697.92	663061.44	-3.4998942e-05
0	0.6189627	0.61896193	-3.174308e-10	0.05359921	0.05359921	0	16686.756	16686.736	-8.162324e-06	663155.25	203392.05	-0.00018413777	203392.56	663154.6	-0.00023973393
0	0.61881065	0.6188098	-2.3550248e-10	0.053458266	0.053458266	0	16682.658	16682.635	-4.3452415e-06	663248.6	203085.73	-0.00013665135	203086.3	663247.94	-8.899822e-05
0	0.6186578	0.618657	-1.7520664e-10	0.053315062	0.053315062	0	16678.537	16678.518	-9.6310105e-06	663342.3	202778.05	-0.00014708018	202778.6	663341.8	-0.0003530608
0	0.6185049	0.61850417	-2.8118463e-10	0.05317402	0.05317402	0	16674.414	16674.395	-4.1455246e-06	663435.75	202470.61	-0.00021751926	202471.12	663435.2	2.241059e-06
0	0.6183498	0.61834896	-2.0642547e-10	0.053032607	0.053032607	0	16670.234	16670.213	-5.8301785e-06	663531.06	202158.05	-0.00019847338	202158.61	663530.5	-0.00010428935
0	0.6181981	0.6181973	-3.2575462e-10	0.052891202	0.052891202	0	16666.145	16666.125	-7.536057e-06	663622.8	201853.98	-0.00017816384	201854.52	663622.25	-0.00021318566
0	0.618044	0.61804324	-3.3315056e-10	0.052749805	0.052749805	0	16661.992	16661.97	-9.578356e-06	663716.44	201544.62	-0.0002814881	201545.19	663715.9	-0.00021591851
0	0.61788845	0.6178876	-3.1496353e-10	0.05260872	0.05260872	0	16657.795	16657.773	-7.503385e-06	663811.75	201231.58	-0.00020630131	201232.14	663811.1	-0.00018335151
0	0.6177348	0.6177341	-2.5521557e-10	0.05246734	0.05246734	0	16653.654	16653.63	-2.6303655e-06	663903.8	200924.3	-0.00015137739	200924.86	663903.25	1.4781801e-05
0	0.61758	0.61757916	-2.6006897e-10	0.052325986	0.052325986	0	16649.48	16649.457	-7.625325e-06	663997.56	200613.9	-0.0001611951	200614.45	663996.94	-0.00023479009
0	0.61742437	0.6174236	-2.5404073e-10	0.052184872	0.052184872	0	16645.285	16645.262	-8.850737e-06	664091.4	200302.31	-0.00019995394	200302.88	664090.75	-0.00025966723
0	0.6172672	0.61726636	-1.2190948e-10	0.05204354	0.05204354	0	16641.047	16641.025	-2.4436515e-06	664186.9	199986.61	-0.00010965475	199987.2	664186.3	-1.7244729e-05
0	0.6171121	0.6171114	-1.429803e-10	0.051902063	0.051902063	0	16636.87	16636.848	-3.8349885e-06	664279.4	199677.12	-0.00016596352	199677.73	664278.75	-3.318847e-05
0	0.616955	0.6169541	-5.3040124e-11	0.05176075	0.05176075	0	16632.63	16632.61	-2.1878866e-06	664373.6	199362.73	-0.00013185252	199363.31	664373.06	1.8234978e-05
0	0.6167976	0.61679673	-2.1079036e-10	0.05161957	0.05161957	0	16628.387	16628.365	-5.2638056e-06	664467.44	199048.6	-0.00014844521	199049.2	664466.9	-0.00012490564
0	0.6166409	0.6166401	-2.7088803e-10	0.05147645	0.05147645	0	16624.164	16624.143	-8.158078e-06	664561.4	198735.28	-0.00028277945	198735.84	664560.9	-0.00014087175
0	0.61648333	0.6164825	-3.1167172e-10	0.051335365	0.051335365	0	16619.916	16619.895	-5.0444332e-06	664655.5	198420.6	-0.00026441386	198421.17	664654.94	2.455069e-06
0	0.616325	0.6163241	-2.4295552e-10	0.051193982	0.051193982	0	16615.648	16615.625	-8.4335e-06	664749.75	198104.7	-0.00020689933	198105.28	664749.1	-0.00023105458
0	0.61616564	0.6161648	-3.1428585e-10	0.051052876	0.051052876	0	16611.35	16611.328	-7.505e-06	664844.2	197787.1	-0.00021523394	197787.67	664843.6	-0.00017450275
0	0.61600775	0.6160069	-1.8036253e-10	0.05091117	0.05091117	0	16607.094	16607.068	-4.511967e-06	664938.1	197472.08	-0.00015274205	197472.66	664937.56	-8.15656e-05
0	0.6158484	0.6158475	-3.2717587e-10	0.050769925	0.050769925	0	16602.797	16602.773	-8.10956e-06	665032.3	197154.81	-0.00031385705	197155.39	665031.7	-0.00010727461
0	0.61568743	0.6156866	-2.7278965e-10	0.05062868	0.05062868	0	16598.457	16598.436	-8.119567e-06	665127.4	196834.53	-0.00012567797	196835.11	665126.7	-0.00029597335
0	0.6155283	0.61552745	-3.747142e-10	0.050487477	0.050487477	0	16594.168	16594.145	-6.049236e-06	665221.4	196517.61	-0.000218846	196518.2	665220.8	-9.529247e-05
0	0.61536807	0.61536723	-1.5342756e-10	0.050346322	0.050346322	0	16589.848	16589.824	-5.5093205e-06	665315.56	196199.12	-0.00019211265	196199.73	665314.9	-9.398785e-05
0	0.6152072	0.61520636	-2.0269517e-10	0.050205022	0.050205022	0	16585.512	16585.488	-9.296111e-06	665410.1	195879.36	-0.00022278067	195879.97	665409.44	-0.0002599689
0	0.6150459	0.615045	-1.14223644e-10	0.05006385	0.05006385	0	16581.162	16581.14	-3.0761373e-06	665504.6	195559.02	-0.00022991936	195559.6	665504.06	7.017471e-05
0	0.6148845	0.61488366	-4.34331e-10	0.04992218	0.04992218	0	16576.814	16576.791	-8.86412e-06	665599	195238.77	-0.00021291703	195239.38	665598.44	-0.00024739915
0	0.6147221	0.61472124	-2.765035e-10	0.049780898	0.049780898	0	16572.436	16572.41	-5.7955344e-06	665693.7	194916.6	-0.00019837552	194917.25	665693.1	-0.00010258815
0	0.61455834	0.61455745	-2.915869e-10	0.049639706	0.049639706	0	16568.02	16567.996	-7.4294703e-06	665789.9	194591.16	-0.00020825867	194591.77	665789.25	-0.00017755572
0	0.61439735	0.61439645	-1.9106244e-10	0.049496647	0.049496647	0	16563.678	16563.654	-7.857379e-06	665883	194272.7	-0.00018786675	194273.33	665882.3	-0.0002201691
0	0.6142332	0.61423236	-1.6059949e-10	0.049355462	0.049355462	0	16559.254	16559.229	-5.4363286e-06	665978.1	193947.69	-0.00016769256	193948.3	665977.44	-0.00011461745
0	0.6140704	0.61406946	-3.0226338e-10	0.049214177	0.049214177	0	16554.865	16554.84	-7.870274e-06	666072.5	193625.48	-0.00013546548	193626.11	666071.9	-0.00027323994
0	0.61390465	0.6139039	-2.9989883e-10	0.049072508	0.049072508	0	16550.395	16550.373	-1.0915894e-05	666169.06	193296.92	-0.00021214558	193297.53	666168.5	-0.0003547197
0	0.6137418	0.61374086	-1.2615851e-10	0.048931316	0.048931316	0	16546.004	16545.98	-2.967717e-06	666262.2	192975.69	-0.00014191576	192976.3	666261.5	-1.2198568e-05
0	0.6135759	0.613575	-2.0035124e-10	0.04879003	0.04879003	0	16541.531	16541.508	-6.1410233e-06	666358.7	192646.92	-0.00012575195	192647.56	666357.94	-0.00019315306
0	0.61341196	0.61341107	-3.9606238e-10	0.048648838	0.048648838	0	16537.113	16537.09	-6.5078702e-06	666451.94	192324.17	-0.00019282165	192324.83	666451.3	-0.00014513382
0	0.6132461	0.6132452	-2.486751e-10	0.04850767	0.04850767	0	16532.639	16532.615	-8.462613e-06	666547.25	191996.6	-0.00017535026	191997.23	666546.6	-0.0002641155
0	0.61307883	0.61307794	-3.511699e-10	0.04836648	0.04836648	0	16528.133	16528.107	-7.990284e-06	666643.7	191666.03	-0.00025733677	191666.67	666643.1	-0.0001576008
0	0.6129136	0.6129127	-2.1419622e-10	0.04822517	0.04822517	0	16523.678	16523.652	-3.5123135e-06	666737.5	191340.89	-0.00010484882	191341.55	666736.9	-7.754657e-05
0	0.61274683	0.612746	-2.8246736e-10	0.048083518	0.048083518	0	16519.184	16519.158	-1.1099505e-05	666832.4	191012.58	-0.00019863465	191013.25	666831.75	-0.00037776565
0	0.6125794	0.6125786	-3.0750272e-10	0.04794232	0.04794232	0	16514.668	16514.645	-8.694218e-06	666927.8	190682.8	-0.00028164295	190683.45	666927.1	-0.00016985016
0	0.6124118	0.6124109	-2.3338015e-10	0.04780102	0.04780102	0	16510.148	16510.125	-4.764469e-06	667022.9	190353.02	-0.0001722289	190353.64	667022.2	-7.519125e-05
0	0.61224306	0.61224216	-9.549939e-11	0.04765983	0.04765983	0	16505.6	16505.574	-5.1597613e-06	667118.1	190021.45	-0.00016194879	190022.17	667117.5	-0.00010599901
0	0.61207503	0.61207414	-3.072722e-10	0.047516864	0.047516864	0	16501.072	16501.045	-5.75853e-06	667213.4	189691.08	-0.00024493496	189691.72	667212.7	-5.4107037e-05
0	0.61190504	0.611904	-2.889889e-10	0.04737567	0.04737567	0	16496.488	16496.463	-6.417658e-06	667309.25	189357.05	-0.0002153446	189357.7	667308.7	-0.00011792614
0	0.61173546	0.6117346	-2.3461907e-10	0.04723435	0.04723435	0	16491.916	16491.895	-5.6830404e-06	667405.8	189023.2	-0.00015788579	189023.88	667405.1	-0.000137236
0	0.611567	0.6115661	-1.9090196e-10	0.047092684	0.047092684	0	16487.375	16487.35	-6.935694e-06	667499.7	188693.5	-0.00028273408	188694.19	667499	-7.743835e-05
0	0.6113968	0.61139584	-1.2627747e-10	0.046951488	0.046951488	0	16482.785	16482.758	-7.818416e-06	667595.1	188359.62	-0.00023405362	188360.3	667594.5	-0.00017195882
0	0.6112248	0.6112238	-2.4181948e-10	0.046810202	0.046810202	0	16478.15	16478.125	-2.6775965e-06	667692.44	188021.64	-0.00015893612	188022.3	667691.8	1.9887812e-05
0	0.61105514	0.6110541	-2.2270039e-10	0.04666901	0.04666901	0	16473.574	16473.549	-8.407353e-06	667786.4	187690.03	-0.00026317002	187690.72	667785.75	-0.00017342606
0	0.6108819	0.6108809	-2.3484206e-10	0.04652784	0.04652784	0	16468.902	16468.879	-1.0802852e-05	667883.6	187350.25	-0.00019482305	187350.94	667883.1	-0.00036617194
0	0.6107117	0.6107107	-2.8756694e-10	0.046386525	0.046386525	0	16464.316	16464.29	-8.2337573e-07	667977.7	187017.92	-0.00021093216	187018.62	667977	0.00016817404
0	0.61053896	0.61053807	-3.0782762e-10	0.046245333	0.046245333	0	16459.66	16459.637	-4.5494276e-06	668073.5	186680.4	-0.0002103819	186681.12	668072.9	-2.5871099e-05
0	0.6103655	0.61036456	-3.3508427e-10	0.04610365	0.04610365	0	16454.98	16454.957	-9.4235065e-06	668169.5	186341.47	-0.00021699093	186342.17	668168.94	-0.0002723743
0	0.6101916	0.61019063	-3.764189e-10	0.04596245	0.04596245	0	16450.293	16450.27	-5.714387e-06	668266.6	186000.88	-0.00029836365	186001.6	668266	1.6139729e-06
0	0.6100192	0.61001825	-1.5737138e-10	0.04582115	0.04582115	0	16445.646	16445.623	-8.097489e-06	668361.25	185665.03	-0.00012975487	185665.75	668360.6	-0.00029074991
0	0.6098453	0.6098443	-2.8622832e-10	0.045679953	0.045679953	0	16440.957	16440.934	-8.765563e-06	668457.06	185325.66	-0.00013193776	185326.38	668456.5	-0.00032326023
0	0.60966957	0.6096686	-4.550646e-10	0.04553704	0.04553704	0	16436.223	16436.193	-6.2155787e-06	668554.3	184982.44	-0.0002678899	184983.17	668553.6	-5.4886754e-05
0	0.6094961	0.6094951	-2.2026488e-10	0.04539575	0.04539575	0	16431.543	16431.52	-8.616543e-06	668648.56	184645.22	-0.0002541115	184645.94	668648	-0.00019334786
0	0.60931885	0.6093179	-3.2501965e-10	0.045254562	0.045254562	0	16426.764	16426.74	-8.130104e-06	668746.44	184299.25	-0.00019755271	184299.95	668745.75	-0.00022464577