# t (s)	mx ()	my ()	mz ()	B_extx (T)	B_exty (T)	B_extz (T)	m_fullx (A/m)	m_fully (A/m)	m_fullz (A/m)	m_full.region1x (A/m)	m_full.region1y (A/m)	m_full.region1z (A/m)	m_full.region2x (A/m)	m_full.region2y (A/m)	m_full.region2z (A/m)
0	0.64704674	0.64676815	-1.7294612e-09	0.07071087	0.07071087	0	104899.2	104854.08	-0.00028625	628793.75	276782.9	-0.0015546558	277128.53	628635.56	-0.0009281744
0	0.64695275	0.64667344	-1.9302022e-10	0.070569105	0.07056911	0	104883.98	104838.695	-3.5e-05	628866.8	276577.5	-0.00016194332	276924.03	628708.25	-0.0001308618
0	0.64685655	0.6465747	0	0.07042789	0.07042789	0	104868.38	104822.695	-7.5e-06	628944.8	276362.44	0	276711.44	628785.06	-9.713453e-05
0	0.6467586	0.6464744	-3.0368516e-10	0.07028652	0.07028653	0	104852.51	104806.43	-4.5625e-05	629022.94	276144.88	-0.00017273954	276496.16	628862.25	-0.00024823268
0	0.6466614	0.6463746	-2.7280192e-10	0.070144884	0.070144884	0	104836.74	104790.24	-4.25e-05	629101.6	275927.44	-0.00017273954	276281.4	628939.7	-0.00022259996
0	0.646564	0.6462746	-3.0111155e-10	0.07000352	0.07000352	0	104820.96	104774.03	-4.75e-05	629179.9	275710.47	-0.0002591093	276066.88	629016.75	-0.00015109815
0	0.6464662	0.64617425	-1.6728419e-10	0.06986229	0.06986229	0	104805.1	104757.77	-2.875e-05	629258.2	275492.78	-7.557355e-05	275851.7	629093.94	-0.00016728725
0	0.64636785	0.64607334	-6.6913676e-11	0.069720544	0.069720544	0	104789.16	104741.414	-1.3125e-05	629336.75	275274.1	-0.00012955465	275635.5	629171.3	2.9679995e-05
0	0.64626974	0.6459728	-4.7611654e-10	0.06957919	0.06957919	0	104773.25	104725.1	-7.1875e-05	629415.06	275056.06	-0.00036167342	275419.94	629248.4	-0.00030961633
0	0.6461711	0.6458715	-2.1618266e-10	0.069437966	0.069437966	0	104757.25	104708.69	-3.1875e-05	629493.8	274836.66	-0.00016194332	275203.1	629326	-0.000120069075
0	0.6460728	0.6457707	-5.327358e-10	0.069296576	0.06929657	0	104741.33	104692.34	-8.4375e-05	629571.9	274618.56	-0.0003022942	274987.47	629403	-0.00044250174
0	0.6459737	0.64566904	-2.0074103e-10	0.06915497	0.06915496	0	104725.25	104675.87	-2.96875e-05	629650.25	274398.94	-5.9379217e-05	274770.28	629480.2	-0.00018482543
0	0.64587474	0.6455676	-3.3714198e-10	0.069013596	0.069013596	0	104709.22	104659.41	-5.34375e-05	629728.9	274179.44	-0.00031309042	274553.38	629557.56	-0.00016189089
0	0.6457752	0.6454655	-1.3382735e-10	0.068872236	0.068872236	0	104693.086	104642.87	-1.8125e-05	629807.3	273959.16	-0.00016734144	274335.53	629635	-6.475636e-05
0	0.6456756	0.64536333	-3.2427397e-10	0.06873064	0.06873064	0	104676.94	104626.29	-4.8125e-05	629886.2	273738.44	-0.0002591093	274117.28	629712.56	-0.00015649453
0	0.64557606	0.64526105	-1.9302022e-10	0.06858927	0.06858927	0	104660.77	104609.734	-3e-05	629964.9	273517.8	-7.557355e-05	273899.25	629789.94	-0.00019426906
0	0.6454753	0.6451579	-2.3934507e-10	0.06844801	0.06844801	0	104644.45	104592.98	-4.0625e-05	630043.75	273295.34	-0.00014035088	273679.3	629867.9	-0.00020438724
0	0.6453761	0.64505595	-4.0662926e-10	0.06830665	0.06830664	0	104628.375	104576.46	-5.78125e-05	630122.4	273075.25	-0.00026990555	273461.9	629945.2	-0.0002704927
0	0.64527524	0.6449525	-3.1912678e-10	0.068165034	0.06816504	0	104612.03	104559.68	-4.78125e-05	630201.3	272852.62	-0.0002051282	273241.88	630023	-0.00021922724
0	0.6451749	0.64484954	-2.4191868e-10	0.068023674	0.068023674	0	104595.75	104543	-3.78125e-05	630280.1	272630.8	-0.000118758435	273022.62	630100.56	-0.00020506179
0	0.64507264	0.6447445	-1.1581213e-10	0.06788232	0.067882314	0	104579.17	104525.984	-1.75e-05	630360	272405.2	-0.000107962216	272799.62	630179.25	-5.3963628e-05
0	0.6449731	0.64464235	-2.1618266e-10	0.067740716	0.067740716	0	104563.04	104509.42	-3.875e-05	630437.9	272185.34	-0.000118758435	272582.34	630255.9	-0.00025902543
0	0.6448716	0.6445382	-1.1838573e-10	0.06759932	0.06759932	0	104546.57	104492.55	-2.1875e-05	630516.7	271961.9	-0.000107962216	272361.44	630333.6	-0.000107927255
0	0.64477015	0.64443403	-3.7574605e-10	0.06745809	0.06745809	0	104530.125	104475.64	-6.1875e-05	630596.1	271737.7	-0.0003562753	272139.97	630411.9	-0.00020303816
0	0.64466876	0.64432997	-7.4634486e-11	0.067316726	0.067316726	0	104513.71	104458.78	-1.4375e-05	630675.06	271514.38	5.3981107e-06	271919.3	630489.5	-0.00012951271
0	0.6445658	0.64422464	-2.2905067e-10	0.067174986	0.067174986	0	104497.016	104441.71	-3.375e-05	630753.94	271289.1	-0.00017273954	271696.44	630567.2	-0.0001457018
0	0.6444636	0.6441196	-2.6250752e-10	0.06703377	0.06703377	0	104480.43	104424.67	-3.78125e-05	630833.3	271063.84	-0.00013495277	271473.88	630645.44	-0.00020641088
0	0.6443619	0.64401513	7.720809e-11	0.066892385	0.066892385	0	104463.96	104407.734	6.875e-06	630912.75	270839.38	-4.8582995e-05	271252.28	630723.56	9.713453e-05
0	0.6442594	0.6439098	-3.0883235e-10	0.06675076	0.06675076	0	104447.336	104390.68	-5.25e-05	630991.9	270613.94	-0.00023751687	271029.5	630801.5	-0.00022664724
0	0.6441567	0.64380443	-2.573603e-10	0.0666094	0.0666094	0	104430.69	104373.586	-4.1875e-05	631070.94	270388.62	-0.00018893387	270806.8	630879.3	-0.00020506179
0	0.6440527	0.643698	-1.4926897e-10	0.06646816	0.06646816	0	104413.836	104356.32	-2.625e-05	631150.3	270161.28	-0.00014035088	270581.97	630957.5	-6.475636e-05
0	0.6439502	0.6435926	-3.2942118e-10	0.06632643	0.06632643	0	104397.21	104339.24	-5.03125e-05	631229.44	269935.75	-0.0002051282	270359.25	631035.44	-0.00023743996
0	0.6438457	0.64348537	-2.1618266e-10	0.06618507	0.06618507	0	104380.25	104321.85	-3.6875e-05	631309.2	269707.03	-0.00017273954	270133.16	631114.06	-0.00017065997
0	0.643743	0.64337987	-4.6324852e-10	0.06604384	0.06604384	0	104363.625	104304.75	-7.3125e-05	631388.5	269481.22	-0.0003562753	269910.25	631192.06	-0.00030759268
0	0.6436388	0.643273	-3.7059883e-10	0.065902434	0.065902434	0	104346.72	104287.414	-5.625e-05	631467.94	269253.34	-0.00021052631	269684.97	631270.25	-0.0003021963
0	0.643535	0.64316636	-1.3897455e-10	0.06576085	0.06576085	0	104329.914	104270.13	-2.09375e-05	631547.25	269025.9	-0.00012415655	269460.34	631348.4	-6.205817e-05
0	0.6434305	0.64305913	-1.5698978e-10	0.06561948	0.065619476	0	104312.95	104252.74	-2.5625e-05	631626.75	268797.44	-0.000107962216	269234.56	631426.6	-0.00013490907
0	0.643326	0.6429518	-2.9853794e-10	0.06547824	0.06547824	0	104296	104235.336	-4.8125e-05	631706.4	268568.8	-0.00028070176	269008.72	631504.8	-0.00016526361
0	0.6432201	0.6428433	-1.1323853e-10	0.065336525	0.06533652	0	104278.84	104217.766	-1.5625e-05	631785.94	268338.5	0	268780.97	631583.4	-0.00010725271
0	0.64311546	0.6427358	-4.7869014e-10	0.06519515	0.06519514	0	104261.89	104200.33	-7.5625e-05	631865.8	268109.3	-0.00037246963	268554.7	631661.94	-0.00033997087
0	0.6430099	0.6426275	-2.779491e-10	0.065053925	0.065053925	0	104244.76	104182.77	-4.125e-05	631945.6	267879	-0.0003076923	268327.12	631740.5	-0.00015109815
0	0.6429053	0.6425199	-2.3934507e-10	0.06491251	0.064912505	0	104227.8	104165.33	-3.6875e-05	632024.9	267650.47	-0.00012955465	268101.4	631818.44	-0.00021248178
0	0.6427983	0.6424103	-3.1912678e-10	0.06477093	0.06477093	0	104210.45	104147.55	-4.5625e-05	632105	267417.97	-0.0002051282	267871.56	631897.4	-0.00024283632
0	0.64269274	0.6423019	-5.4560384e-10	0.06462956	0.06462956	0	104193.35	104129.984	-8.75e-05	632184.4	267188.1	-0.00037786775	267644.5	631975.56	-0.00033997087
0	0.64258707	0.64219326	-1.3897455e-10	0.06448818	0.06448818	0	104176.21	104112.38	-2.1875e-05	632264.3	266957.34	-6.477733e-05	267416.66	632054.1	-0.00011871998
0	0.64247996	0.6420836	-1.8529941e-10	0.0643466	0.0643466	0	104158.84	104094.586	-2.78125e-05	632343.75	266725.3	-0.0002051282	267187.28	632132.5	-3.777454e-05
0	0.6423734	0.6419741	-2.5221308e-10	0.06420524	0.06420522	0	104141.58	104076.85	-4.21875e-05	632423.56	266493.7	-0.0002591093	266958.4	632210.94	-0.00013423452
0	0.64226586	0.6418637	-1.1838573e-10	0.064063966	0.064063966	0	104124.13	104058.945	-1.59375e-05	632504.06	266259.66	-1.0796221e-05	266727.28	632290.25	-0.00010185635
0	0.64215976	0.6417546	-1.6471059e-10	0.06392258	0.063922584	0	104106.945	104041.266	-3e-05	632583.8	266028.56	-0.0002483131	266499.2	632368.6	-5.3963628e-05
0	0.6420525	0.6416444	-1.3382735e-10	0.06378101	0.063781016	0	104089.54	104023.39	-2.3125e-05	632663.75	265795.56	-0.00017273954	266269.03	632447.3	-6.475636e-05
0	0.64194405	0.6415332	-2.3419788e-10	0.06363963	0.06363963	0	104071.97	104005.37	-4.34375e-05	632744.06	265560.62	-0.00019433198	266036.9	632526.4	-0.0001740327
0	0.6418367	0.6414229	-1.3897455e-10	0.06349825	0.06349825	0	104054.57	103987.47	-2.0625e-05	632824.1	265327.38	-0.000107962216	265806.62	632605.1	-3.3052722e-05
0	0.6417285	0.6413118	-1.4412177e-10	0.06335668	0.06335668	0	104037.03	103969.46	-1.9375e-05	632904.1	265093.12	-8.636977e-05	265575.22	632683.9	-0.00015109815
0	0.64162016	0.64120066	-1.9044662e-10	0.063215286	0.06321527	0	104019.445	103951.45	-3.6875e-05	632983.94	264858.97	-0.00017273954	265343.84	632762.4	-0.000107927255
0	0.6415117	0.6410892	-4.375125e-10	0.06307404	0.06307404	0	104001.87	103933.375	-6.75e-05	633064.25	264623.8	-0.0003994602	265111.66	632841.5	-0.00024823268
0	0.6414019	0.64097667	-2.0588824e-10	0.062932655	0.062932655	0	103984.08	103915.13	-3.15625e-05	633144.6	264386.94	-7.017544e-05	264877.62	632920.7	-0.00016189089
0	0.64129376	0.6408654	-3.1397956e-10	0.062790945	0.062790945	0	103966.555	103897.11	-5.25e-05	633224.94	264152.34	-0.0003022942	264646.06	632999.5	-0.00017673089
0	0.64118296	0.6407517	-1.2868015e-10	0.062649705	0.062649705	0	103948.58	103878.664	-2.25e-05	633306	263913.28	-0.000118758435	264409.88	633079.3	-7.015272e-05
0	0.6410748	0.6406406	-1.2353295e-10	0.06250833	0.06250833	0	103931.05	103860.66	-1.75e-05	633385.3	263679.6	-4.3184886e-05	264179.12	633157.44	-9.3087256e-05
0	0.6409647	0.64052767	-3.0883235e-10	0.06236674	0.06236674	0	103913.19	103842.336	-5.125e-05	633465.56	263442.44	-0.00028070176	263944.8	633236.4	-0.00021315634
0	0.64085513	0.64041495	-1.3382735e-10	0.062225346	0.062225346	0	103895.43	103824.08	-2.25e-05	633545.8	263205.72	-4.3184886e-05	263711.12	633315.4	-0.00018347634
0	0.6407439	0.640301	-2.0846185e-10	0.06208412	0.06208412	0	103877.41	103805.59	-3.65625e-05	633626.44	262966.7	-0.00017813765	263475	633394.75	-0.00014974907
0	0.6406344	0.6401885	-1.2868015e-11	0.061942417	0.061942417	0	103859.67	103787.36	2.1875e-06	633706.6	262730.34	1.0796221e-05	263241.7	633473.44	3.3727267e-06
0	0.6405234	0.6400744	-2.547867e-10	0.06180102	0.061801024	0	103841.66	103768.86	-4.21875e-05	633787.2	262491.3	-0.00019433198	263005.62	633552.75	-0.0001160218
0	0.6404121	0.6399602	-1.4412177e-10	0.06165979	0.061659794	0	103823.61	103750.35	-2.0625e-05	633867.5	262252.3	-0.0002051282	262769.5	633631.9	-3.237818e-05
0	0.6402994	0.6398444	-9.264971e-11	0.061518367	0.061518367	0	103805.35	103731.586	-1.65625e-05	633949.4	262009.66	-7.557355e-05	262529.97	633712.4	-5.5987264e-05
0	0.6401897	0.63973176	-3.1397956e-10	0.061376818	0.06137681	0	103787.56	103713.31	-5.0625e-05	634028.6	261773.84	-0.0002968961	262297.12	633790.3	-0.00016323998
0	0.6400771	0.63961625	-2.9339073e-10	0.061235435	0.061235428	0	103769.31	103694.58	-4.5e-05	634109.6	261532.42	-0.00031309042	262058.64	633870	-0.000102530896
0	0.63996613	0.6395021	-3.2684758e-10	0.061094042	0.061094042	0	103751.31	103676.07	-5.125e-05	634189.94	261293.58	-0.00018353577	261822.9	633949	-0.00028600724
0	0.6398529	0.639386	-2.3162426e-10	0.0609525	0.060952503	0	103732.94	103657.26	-3.9375e-05	634270.44	261051.64	-0.0002051282	261583.83	634028.25	-0.0001726836
0	0.6397401	0.6392701	-2.4963948e-10	0.060811102	0.060811102	0	103714.67	103638.47	-3.875e-05	634351.7	260809.53	-0.00021592443	261344.84	634108.2	-0.00012883816
0	0.63962716	0.6391542	-1.698578e-10	0.06066984	0.06066984	0	103696.37	103619.664	-2.6875e-05	634432.4	260567.81	-8.636977e-05	261106.16	634187.5	-0.00014907452
0	0.6395156	0.6390392	-3.0368516e-10	0.060528446	0.060528446	0	103678.26	103601.05	-4.71875e-05	634513	260327.62	-0.00016734144	260869.25	634266.8	-0.00023743996
0	0.6394016	0.63892245	-1.9559382e-10	0.060386896	0.0603869	0	103659.79	103582.12	-3.15625e-05	634593.44	260084.83	-0.00019433198	260629.33	634346.06	-7.015272e-05
0	0.6392878	0.6388057	-1.6471059e-10	0.060245506	0.060245506	0	103641.34	103563.18	-2.84375e-05	634674.3	259841.75	-0.000107962216	260389.27	634425.5	-0.000120069075
0	0.6391741	0.63868886	-1.0294412e-10	0.060104124	0.060104124	0	103622.914	103544.234	-1.96875e-05	634755.1	259598.67	-3.7786776e-05	260149.27	634505.06	-0.00015379634
0	0.6390599	0.6385715	-1.0809133e-10	0.059962578	0.05996258	0	103604.4	103525.21	-1.6875e-05	634836.5	259354.2	-3.7786776e-05	259908.03	634585.1	-0.000102530896
0	0.63894665	0.6384549	-4.0405568e-10	0.059821147	0.059821147	0	103586.04	103506.32	-6.625e-05	634917.5	259111.48	-0.00038326587	259668.62	634664.56	-0.00023609087
0	0.6388311	0.6383364	-3.8089323e-10	0.059679918	0.059679918	0	103567.3	103487.1	-6.125e-05	634998.5	258865.77	-0.0002483131	259425.84	634744.4	-0.0002914036
0	0.63871765	0.6382197	-1.4154816e-10	0.05953851	0.05953851	0	103548.914	103468.17	-2.3125e-05	635079.2	258622.98	-0.00012955465	259186.36	634823.6	-0.00011871998
0	0.63860196	0.6381011	-4.349389e-10	0.059396826	0.059396826	0	103530.15	103448.94	-6.59375e-05	635159.94	258377.42	-0.0002537112	258943.72	634903.06	-0.00034266905
0	0.6384862	0.63798213	-1.6471059e-10	0.059255596	0.059255596	0	103511.375	103429.664	-3.0625e-05	635241.5	258130.66	-8.636977e-05	258700.16	634983.4	-0.00016728725
0	0.6383719	0.6378646	-6.6913676e-11	0.059114188	0.059114188	0	103492.85	103410.61	-1e-05	635322.3	257886.56	4.8582995e-05	258459.39	635062.6	-0.00013558361
0	0.6382547	0.63774425	-4.967054e-10	0.058972627	0.05897263	0	103473.85	103391.1	-8.3125e-05	635403.9	257637.83	-0.0004102564	258213.73	635143.06	-0.0003790945
0	0.6381401	0.6376263	-3.3456837e-10	0.058831234	0.058831234	0	103455.27	103371.984	-5.4375e-05	635484.7	257393.27	-0.00016734144	257972.52	635222.4	-0.00028061087
0	0.63802266	0.637506	-2.6250752e-10	0.058689985	0.05868999	0	103436.234	103352.48	-4.1875e-05	635565.8	257144.88	-0.00019433198	257727.1	635302.25	-0.00019426906
0	0.6379062	0.63738614	-9.779691e-11	0.0585483	0.0585483	0	103417.35	103333.05	-1.84375e-05	635647.44	256896.92	-8.636977e-05	257482.48	635382.44	-8.903999e-05
0	0.6377904	0.637267	-1.2095934e-10	0.058406904	0.058406904	0	103398.57	103313.734	-1.65625e-05	635728.4	256650.55	2.1592443e-05	257239.39	635461.9	-0.00011332362
0	0.6376733	0.63714683	0	0.058265664	0.058265664	0	103379.6	103294.24	1.25e-06	635809.4	256402.56	-1.0796221e-05	256994.6	635541.6	-5.3963627e-06
0	0.6375553	0.6370257	-3.7059883e-10	0.05812423	0.05812423	0	103360.484	103274.61	-5.875e-05	635890.94	256152.72	-0.00029149797	256747.92	635621.8	-0.00023743996
0	0.637438	0.636905	-2.2647706e-10	0.057982713	0.057982713	0	103341.445	103255.05	-3.46875e-05	635972.4	255903.64	-0.00021592443	256502.22	635701.9	-0.00013490907
0	0.6373201	0.63678396	-1.8529941e-10	0.057841305	0.057841305	0	103322.336	103235.43	-3.125e-05	636053.5	255654.44	-0.00016734144	256256.17	635781.6	-0.000107927255
0	0.637201	0.63666177	-7.5921286e-10	0.057699904	0.057699904	0	103303.02	103215.59	-0.000125625	636135.25	255402.81	-0.0005614035	256007.78	635862.06	-0.0005450327
0	0.6370835	0.63654095	-2.3677146e-10	0.057558388	0.057558388	0	103283.98	103196.02	-3.875e-05	636216.1	255154.11	-0.00012955465	255762.36	635941.56	-0.00019426906
0	0.6369652	0.6364193	-7.2060885e-11	0.057416987	0.057416987	0	103264.8	103176.305	-1.1875e-05	636297.5	254903.81	-0.000107962216	255515.4	636021.6	-4.0472723e-06
0	0.63684624	0.63629717	-2.599339e-10	0.05727571	0.05727571	0	103245.516	103156.49	-4.3125e-05	636379	254652.55	-0.0002051282	255267.45	636101.7	-0.0001666127
0	0.63672674	0.6361743	5.6619265e-11	0.0571343	0.057134308	0	103226.13	103136.586	6.875e-06	636460.7	254400.25	-1.0796221e-05	255018.42	636181.94	8.094544e-05
0	0.6366073	0.6360514	-3.9118764e-10	0.05699279	0.05699279	0	103206.76	103116.664	-6.53125e-05	636542.56	254147.8	-0.00023751687	254769.4	636262.4	-0.0003183854
0	0.63648784	0.63592863	-7.2060885e-11	0.05685139	0.05685139	0	103187.41	103096.76	-1.21875e-05	636624.25	253895.55	-8.636977e-05	254520.56	636342.56	-1.011818e-05
0	0.6363683	0.6358058	-4.169237e-10	0.05670998	0.05670998	0	103168.01	103076.836	-6.8125e-05	636705.56	253643.56	-0.00042105262	254271.92	636422.56	-0.00022259996
0	0.6362479	0.6356823	-2.599339e-10	0.05656847	0.05656847	0	103148.5	103056.805	-4.3125e-05	636786.6	253390.81	-0.00019433198	254022.33	636502.3	-0.0001726836
0	0.63612694	0.6355579	-1.4412177e-10	0.05642703	0.05642703	0	103128.914	103036.65	-2.5625e-05	636868.9	253135.77	-0.00014035088	253770.86	636583.2	-5.80109e-05
0	0.63600665	0.63543427	-2.4191868e-10	0.056285787	0.056285787	0	103109.38	103016.61	-3.8125e-05	636950.2	252882.84	-9.1767884e-05	253521.22	636662.94	-0.0002914036
0	0.63588494	0.63530916	-9.779691e-11	0.05614437	0.05614437	0	103089.664	102996.33	-1.53125e-05	637032.3	252626.95	1.0796221e-05	253268.73	636743.75	-0.00015109815
0	0.6357623	0.6351835	-1.9559382e-10	0.056002706	0.0560027	0	103069.78	102975.94	-3.375e-05	637114	252370.42	-0.00017273954	253015.4	636824.06	-0.00016189089
0	0.63564235	0.63505983	-3.0368516e-10	0.055861466	0.05586147	0	103050.34	102955.91	-4.875e-05	637195.8	252117.08	-0.0002051282	252765.73	636904.44	-0.00021585451
0	0.63552094	0.634935	-2.1103544e-10	0.055720054	0.05572005	0	103030.664	102935.67	-3.15625e-05	637277.2	251862.34	-0.000107962216	252514.39	636984.44	-0.00019426906
0	0.6353986	0.63480943	-1.1323853e-10	0.05557856	0.055578563	0	103010.81	102915.32	-1.625e-05	637358.7	251606.34	-9.716599e-05	252261.72	637064.56	-5.8685448e-05
0	0.63527626	0.63468367	-2.0074103e-10	0.055437103	0.0554371	0	102990.984	102894.91	-2.90625e-05	637440.6	251349.58	-0.00022672064	252008.44	637145	-6.880362e-05
0	0.63515335	0.6345574	-2.2390347e-10	0.05529586	0.05529586	0	102971.06	102874.45	-3.625e-05	637522.56	251092.31	-0.00012955465	251754.64	637225.56	-0.00015109815
0	0.6350303	0.63443106	-1.5441617e-10	0.055154447	0.055154447	0	102951.12	102853.96	-2.8125e-05	637604.25	250835.03	-6.477733e-05	251500.77	637305.8	-0.00014974907
0	0.6349071	0.6343042	-8.75025e-11	0.05501279	0.05501279	0	102931.14	102833.4	-1.90625e-05	637686.7	250576.61	-3.2388663e-05	251245.94	637386.75	-0.00012276726
0	0.63478386	0.63417745	-1.1838573e-10	0.054871544	0.054871537	0	102911.164	102812.86	-2.125e-05	637768.56	250318.62	2.1592443e-05	250991.45	637467.2	-0.00019426906
0	0.6346599	0.63405025	1.775786e-10	0.054730132	0.05473013	0	102891.05	102792.21	3e-05	637850	250060.17	0.00017813765	250736.36	637547.3	7.554908e-05
0	0.6345357	0.63392246	-1.4154816e-10	0.054588605	0.054588605	0	102870.914	102771.51	-2.5625e-05	637932.7	249800.17	-0.00014035088	250480.06	637628.4	-5.3963628e-05
0	0.6344117	0.633795	2.573603e-11	0.05444718	0.05444718	0	102850.836	102750.84	5e-06	638014.25	249541.55	2.1592443e-05	250224.9	637708.6	5.3963628e-05
0	0.634287	0.6336669	-3.9890846e-10	0.05430595	0.05430595	0	102830.61	102730.06	-6.75e-05	638096.44	249281.33	-0.0003454791	249968.22	637789.3	-0.00019291998
0	0.63416135	0.63353777	1.1581213e-10	0.05416429	0.054164287	0	102810.24	102709.15	2.0625e-05	638178.5	249019.92	0.000107962216	249710.25	637870.1	4.31709e-05
0	0.6340363	0.6334094	-4.246445e-11	0.05402286	0.05402286	0	102789.98	102688.33	-8.75e-06	638260.2	248759.8	-2.1592443e-05	249453.66	637950.4	-2.158545e-05
0	0.63391143	0.6332808	-2.2647706e-10	0.053881623	0.053881623	0	102769.72	102667.47	-3.8125e-05	638342.8	248498.58	-7.557355e-05	249196.19	638031.4	-0.0002394636
0	0.633784	0.6331501	2.612207e-10	0.053740162	0.053740162	0	102749.06	102646.29	4.84375e-05	638424.6	248235.06	0.0004102564	248935.97	638111.94	2.158545e-05
0	0.6336599	0.63302225	-2.3419788e-10	0.053598687	0.053598687	0	102728.95	102625.555	-3.6875e-05	638506.8	247975.42	-0.00023751687	248680.2	638192.44	-0.00015109815
0	0.6335336	0.6328923	-4.503805e-10	0.053457264	0.05345726	0	102708.47	102604.516	-7.1875e-05	638588.94	247712.97	-0.00037786775	248421.31	638273.06	-0.0002650963
0	0.6334071	0.63276225	6.047967e-11	0.05331584	0.053315833	0	102687.96	102583.42	1.03125e-05	638671.1	247450	7.017544e-05	248161.98	638353.9	4.31709e-05
0	0.6332798	0.6326314	-1.6857099e-10	0.053174376	0.053174376	0	102667.31	102562.21	-2.9375e-05	638753.6	247185.7	-0.00019433198	247901.34	638434.94	-4.789272e-05
0	0.63315254	0.63250065	-3.8732725e-10	0.053032946	0.053032946	0	102646.695	102541.01	-6.25e-05	638835.8	246921.83	-0.00036707154	247641.1	638515.6	-0.00018347634
0	0.6330249	0.6323694	-2.8052272e-10	0.052891657	0.05289166	0	102626	102519.73	-4.375e-05	638918	246657.34	-0.00021592443	247380.2	638596.4	-0.0001726836
0	0.63289803	0.6322389	-4.6324854e-11	0.052750226	0.052750226	0	102605.414	102498.57	-1.5625e-05	639000.1	246394	-0.00017273954	247120.61	638677	4.31709e-05
0	0.63276935	0.63210654	-2.1360905e-10	0.05260877	0.05260877	0	102584.56	102477.12	-3.40625e-05	639083	246127.28	-0.00014574899	246857.64	638758.3	-0.00015649453
0	0.63264114	0.6319748	-1.1838573e-10	0.052467342	0.052467342	0	102563.78	102455.766	-2.25e-05	639164.94	245862.33	-0.00011336032	246596.27	638838.8	-8.63418e-05
0	0.63251233	0.6318425	-5.739135e-10	0.052325904	0.052325904	0	102542.9	102434.305	-8.75e-05	639247.2	245596.11	-0.00044264508	246333.72	638919.7	-0.00034469267
0	0.63238406	0.6317104	-2.779491e-10	0.05218446	0.05218446	0	102522.1	102412.91	-4.375e-05	639329.5	245330.4	-0.00017273954	246071.75	639000.5	-0.00022529815
0	0.6322544	0.63157713	-3.9890848e-11	0.052042987	0.052042987	0	102501.07	102391.27	-1e-05	639412.2	245062.47	8.636977e-05	245807.61	639081.7	-0.00011399817
0	0.63212526	0.63144433	-1.698578e-10	0.051901728	0.051901724	0	102480.15	102369.75	-2.84375e-05	639494.44	244795.75	-9.716599e-05	245544.62	639162.44	-0.00014030543
0	0.63199514	0.6313105	-6.948728e-11	0.051760294	0.0517603	0	102459.055	102348.07	-1.125e-05	639577.06	244527.33	-0.00016194332	245279.95	639243.56	5.1265448e-05
0	0.6318654	0.6311771	-4.349389e-10	0.051618673	0.051618665	0	102438	102326.44	-6.71875e-05	639659.4	244259.61	-0.00022672064	245016	639324.4	-0.00035615996
0	0.63173455	0.6310427	-2.5092628e-10	0.05147742	0.05147742	0	102416.805	102304.65	-4.46875e-05	639742.06	243990.22	-0.00012955465	244750.36	639405.5	-0.00022664724
0	0.631604	0.6309083	-3.2041356e-10	0.051335983	0.051335976	0	102395.65	102282.85	-5.5e-05	639824.7	243720.9	-0.00023751687	244484.89	639486.7	-0.00023136906
0	0.63147295	0.6307736	-2.0074103e-10	0.051194496	0.051194493	0	102374.4	102261.016	-3.1875e-05	639907.25	243451.19	-0.00016734144	244218.98	639567.7	-8.63418e-05
0	0.63134205	0.63063896	-1.8915981e-10	0.051053066	0.051053066	0	102353.17	102239.18	-2.6875e-05	639989.8	243181.6	-9.716599e-05	243953.27	639648.7	-0.00012951271
0	0.6312105	0.6305038	-3.397156e-10	0.050911807	0.050911807	0	102331.86	102217.266	-5.25e-05	640072.06	242911.44	-0.0003454791	243686.84	639729.6	-0.00015109815
0	0.6310785	0.63036793	-2.8695674e-10	0.050770186	0.050770186	0	102310.44	102195.25	-4.4375e-05	640154.75	242640.14	-0.00022672064	243419.38	639810.7	-0.00020506179
0	0.63094616	0.6302319	-3.0239836e-10	0.050628755	0.050628755	0	102289	102173.2	-4.5e-05	640237.3	242368.45	-0.00021592443	243151.52	639891.9	-0.00018347634
0	0.6308141	0.630096	-2.1103544e-10	0.050487496	0.050487496	0	102267.586	102151.17	-3.625e-05	640319.9	242097.27	-0.00023751687	242884.25	639972.75	-8.63418e-05
0	0.6306813	0.62995946	-1.5956339e-10	0.050346017	0.050346017	0	102246.055	102129.04	-2.625e-05	640402.7	241824.7	-0.000118758435	242615.6	640054.06	-0.000107927255
0	0.6305482	0.6298225	-1.711446e-10	0.05020459	0.05020459	0	102224.48	102106.82	-3.125e-05	640485.44	241551.6	-0.00016194332	242346.4	640135.4	-9.713453e-05
0	0.6304148	0.6296853	-3.422892e-10	0.050063144	0.050063144	0	102202.836	102084.586	-5.25e-05	640568.1	241278.38	-0.00021592443	242077.05	640216.5	-0.0003021963
0	0.63028145	0.6295482	-2.2132986e-10	0.049921695	0.049921695	0	102181.22	102062.36	-3.625e-05	640650.5	241005.5	-0.0001511471	241808.08	640297.3	-0.00018347634
0	0.63014704	0.62941	-3.2942118e-10	0.04978028	0.04978028	0	102159.43	102039.94	-5.3125e-05	640733.6	240730.36	-0.00028070176	241536.88	640378.94	-0.00023743996
0	0.63001347	0.6292726	-9.264971e-11	0.049638826	0.049638826	0	102137.78	102017.68	-1.125e-05	640815.75	240457.38	-0.000107962216	241267.8	640459.56	-3.237818e-05
0	0.6298781	0.62913334	-5.7906065e-11	0.04949753	0.04949753	0	102115.85	101995.09	-7.5e-06	640899.25	240180.42	-6.477733e-05	240994.9	640541.44	-2.158545e-05
0	0.62974143	0.62899286	-9.13629e-11	0.04935608	0.04935608	0	102093.68	101972.336	-1.75e-05	640982.7	239901.78	-8.636977e-05	240720.14	640623.4	-8.63418e-05
0	0.62960863	0.6288562	-2.586471e-10	0.049214657	0.049214657	0	102072.16	101950.18	-3.75e-05	641064.25	239630.44	-0.000107962216	240452.75	640703.4	-0.00025902543
0	0.62947273	0.6287163	-1.737182e-10	0.04907321	0.049073208	0	102050.12	101927.49	-2.875e-05	641147.44	239352.84	-0.000118758435	240179.22	640785.06	-0.00014030543
0	0.62933743	0.6285773	-3.2942118e-10	0.048931766	0.048931766	0	102028.164	101904.945	-5.25e-05	641229.8	239077.28	-0.00026990555	239907.56	640865.9	-0.00018347634
0	0.6292014	0.6284374	-2.534999e-10	0.04879036	0.04879036	0	102006.14	101882.266	-4.0625e-05	641312.44	238800.27	-0.00017273954	239634.55	640947	-0.0001726836
0	0.6290645	0.62829655	-3.0883235e-10	0.048648857	0.048648857	0	101983.94	101859.44	-5.125e-05	641395.6	238521.45	-0.0002483131	239359.8	641028.6	-0.00023743996
0	0.62892723	0.62815535	-1.5570298e-10	0.04850761	0.04850761	0	101961.69	101836.53	-1.9375e-05	641478.8	238242.05	-8.636977e-05	239084.48	641110.25	-9.7809076e-05
0	0.62878996	0.62801427	-2.8052272e-10	0.048366148	0.048366148	0	101939.44	101813.664	-4.75e-05	641561.56	237963.23	-0.00029149797	238809.62	641191.5	-0.00011467271
0	0.62865317	0.62787354	-4.2207088e-10	0.04822455	0.04822455	0	101917.26	101790.87	-6.75e-05	641643.8	237685.5	-0.0003454791	238535.88	641272.2	-0.00023069451
0	0.6285158	0.62773216	-8.364209e-11	0.048083294	0.048083294	0	101894.984	101767.92	-1.375e-05	641727	237405.84	-3.2388663e-05	238260.42	641353.75	-8.63418e-05
0	0.62837744	0.6275897	-6.948728e-11	0.04794183	0.04794183	0	101872.55	101744.84	-8.75e-06	641810.7	237124.38	-8.636977e-05	237983.19	641435.75	-6.138363e-05
0	0.62823963	0.62744784	-1.0037052e-10	0.047800392	0.047800392	0	101850.2	101721.84	-1.5625e-05	641893.3	236844.66	-0.000118758435	237707.56	641516.94	0
0	0.6281	0.6273045	-1.0551772e-10	0.047658946	0.047658946	0	101827.57	101698.6	-2e-05	641975.94	236562.72	-0.00021592443	237429.52	641598	4.31709e-05
0	0.62796205	0.62716246	-2.599339e-10	0.047517676	0.04751768	0	101805.21	101675.58	-3.625e-05	642058.9	236282.38	-0.00017273954	237153.5	641679.4	-0.00021585451
0	0.6278227	0.627019	-4.2335768e-10	0.047376227	0.04737622	0	101782.61	101652.31	-6.3125e-05	642142.1	235999.95	-0.00043184886	236875.23	641760.94	-0.0001726836
0	0.62768304	0.6268752	-2.1360905e-10	0.047234632	0.047234632	0	101759.98	101629.01	-3.828125e-05	642225.3	235717.03	-0.00014035088	236596.55	641842.56	-0.00019426906
0	0.6275431	0.6267313	-1.3897455e-10	0.047093365	0.047093365	0	101737.29	101605.68	-2.171875e-05	642308.44	235433.98	-0.00014035088	236317.67	641924	-7.217635e-05
0	0.6274031	0.6265873	-4.362257e-10	0.046951856	0.046951856	0	101714.59	101582.336	-7.125e-05	642391.3	235151.06	-0.0003022942	236038.92	642005.3	-0.00035615996
0	0.6272627	0.62644285	-2.457791e-10	0.04681048	0.04681048	0	101691.836	101558.914	-3.890625e-05	642474.2	234867.42	-0.00023751687	235759.48	642086.6	-6.475636e-05
0	0.6271214	0.6262973	-2.4963948e-10	0.046669014	0.046669014	0	101668.914	101535.31	-4.078125e-05	642557.7	234581.72	-0.00021592443	235478.05	642168.56	-0.00013625817
0	0.6269806	0.6261526	-2.3934507e-10	0.046527762	0.046527762	0	101646.1	101511.85	-3.453125e-05	642640.4	234297.83	-0.00029149797	235198.38	642249.7	-3.237818e-05
0	0.62683886	0.6260067	-2.3934507e-10	0.04638618	0.04638618	0	101623.125	101488.2	-3.5625e-05	642723.75	234011.89	-0.000107962216	234916.75	642331.4	-0.00018347634
0	0.626697	0.6258607	-2.4963948e-10	0.046244707	0.046244707	0	101600.11	101464.53	-4.09375e-05	642806.9	233725.86	-0.00016194332	234635	642412.94	-0.00019561815
0	0.6265543	0.62571406	-1.827258e-10	0.04610345	0.04610345	0	101577	101440.76	-2.984375e-05	642889.8	233439.17	-0.00018893387	234352.45	642494.3	-8.63418e-05
0	0.6264118	0.6255675	-1.8015221e-10	0.045961928	0.045961928	0	101553.88	101417	-2.71875e-05	642972.75	233152.56	-0.00017273954	234070.08	642575.6	-0.000107927255
0	0.62626976	0.62542117	-3.551572e-10	0.04582056	0.04582056	0	101530.87	101393.28	-5.5625e-05	643055.9	232866.17	-0.00026990555	233788.11	642657.06	-0.00022664724
0	0.6261265	0.62527364	-2.444923e-10	0.045679096	0.0456791	0	101507.625	101369.37	-3.890625e-05	643139.25	232577.86	-0.00016734144	233504.1	642738.9	-0.00018347634
0	0.62598294	0.6251262	-2.3934507e-10	0.04553762	0.045537617	0	101484.35	101345.445	-4.09375e-05	643221.9	232290.19	-0.00029149797	233220.64	642820	-8.63418e-05
0	0.62583923	0.62497807	-2.573603e-10	0.045396265	0.04539626	0	101461.055	101321.44	-4.3125e-05	643305.5	232000.94	-0.0002051282	232935.86	642901.9	-0.00019426906
0	0.6256953	0.62482995	-2.3677146e-10	0.04525479	0.04525479	0	101437.73	101297.43	-4.3125e-05	643388.56	231712.03	-0.00022672064	232651.34	642983.25	-0.000107927255
0	0.625551	0.6246814	-4.0148207e-10	0.04511347	0.04511347	0	101414.33	101273.35	-6.8125e-05	643471.75	231422.45	-0.00028070176	232366.2	643064.9	-0.0003345745
0	0.6254059	0.6245321	-1.2095934e-10	0.044972	0.04497199	0	101390.805	101249.15	-1.6875e-05	643555	231131.78	-0.00017273954	232079.86	643146.56	-2.158545e-05
0	0.625261	0.624383	-2.0074103e-10	0.04483065	0.04483065	0	101367.32	101224.984	-3.375e-05	643638.25	230841.36	-9.716599e-05	231793.88	643228.1	-0.00020506179