# t (s)	mx ()	my ()	mz ()	B_extx (T)	B_exty (T)	B_extz (T)	m_fullx (A/m)	m_fully (A/m)	m_fullz (A/m)	m_full.region1x (A/m)	m_full.region1y (A/m)	m_full.region1z (A/m)	m_full.region2x (A/m)	m_full.region2y (A/m)	m_full.region2z (A/m)
0	0.6491266	0.6491257	-6.250103e-10	0.07071087	0.07071087	0	71066.375	71066.28	-7.125e-05	644326.2	264450.34	-0.00062539964	264451.06	644325.6	-0.00033567776
0	0.64902025	0.649018	-3.2774933e-10	0.070569105	0.07056911	0	71054.734	71054.48	-3.6875e-05	644428.3	264197.97	-0.00017782928	264200	644427.25	-0.00029171995
0	0.6489108	0.64890844	-5.1830124e-10	0.07042788	0.07042789	0	71042.766	71042.49	-5.78125e-05	644533.6	263939.38	-0.0002957161	263941.56	644532.3	-0.000415601
0	0.6487998	0.64879733	-3.4299347e-10	0.07028652	0.07028652	0	71030.6	71030.336	-3.5625e-05	644640.1	263677.34	-0.00034566814	263679.53	644639	-0.00015784847
0	0.6486881	0.6486856	-5.1067917e-10	0.070144884	0.070144884	0	71018.36	71018.11	-6e-05	644747.2	263413.9	-0.00045456362	263416.06	644746	-0.00028372763
0	0.64857715	0.64857477	-2.8963895e-10	0.07000352	0.07000352	0	71006.234	71005.96	-2.65625e-05	644853.2	263152.75	-0.00031170077	263154.9	644851.8	-1.5984655e-05
0	0.64846516	0.6484627	-4.95435e-10	0.06986229	0.06986229	0	70993.98	70993.7	-5.125e-05	644960.2	262888.9	-0.00031170077	262891.12	644958.94	-0.0003516624
0	0.6483534	0.64835095	-4.725688e-10	0.069720544	0.069720544	0	70981.734	70981.46	-5.1875e-05	645066.6	262625.94	-0.00039462117	262628.16	645065.3	-0.00029171995
0	0.6482409	0.6482384	-3.048831e-10	0.069579184	0.06957919	0	70969.42	70969.15	-3.125e-05	645173.44	262361.72	-0.00016783888	262363.9	645172.1	-0.00027173912
0	0.6481273	0.6481248	-2.2866233e-10	0.069437966	0.069437966	0	70956.98	70956.7	-2.6875e-05	645281.2	262094.75	-0.00012987532	262096.94	645280	-0.00013786765
0	0.648015	0.6480126	-2.5915062e-10	0.069296576	0.069296576	0	70944.69	70944.42	-2.3125e-05	645387.6	261831.2	-0.00016184463	261833.39	645386.44	-0.00020380435
0	0.64790255	0.64790016	-1.3719739e-10	0.06915496	0.06915496	0	70932.375	70932.1	-1.5e-05	645494	261567.53	-0.00013586956	261569.73	645492.7	-7.193095e-05
0	0.6477878	0.6477853	-5.1067917e-10	0.069013596	0.069013596	0	70919.805	70919.53	-5.375e-05	645602.25	261298.38	-0.00040561063	261300.6	645600.94	-0.0003196931
0	0.6476751	0.64767253	-5.1830124e-10	0.068872236	0.068872236	0	70907.46	70907.195	-5.25e-05	645708.5	261034.36	-0.00035765665	261036.6	645707.25	-0.00037563939
0	0.6475604	0.6475579	-5.1830124e-10	0.06873064	0.06873064	0	70894.914	70894.63	-5.6875e-05	645816.25	260766.03	-0.00034367008	260768.27	645815	-0.00034766624
0	0.64744633	0.64744383	-1.9055194e-10	0.06858927	0.06858927	0	70882.43	70882.16	-1.625e-05	645923.56	260499.05	-0.0001658408	260501.3	645922.3	-0.0001098945
0	0.6473311	0.6473286	-5.2592336e-10	0.068448015	0.06844801	0	70869.81	70869.53	-5.6875e-05	646031.44	260229.83	-0.00049252715	260232.06	646030.2	-0.00031170077
0	0.64721674	0.6472143	-1.6006363e-10	0.06830665	0.06830665	0	70857.29	70857.016	-1.8125e-05	646138.44	259962.83	-0.00020580243	259965.1	646137.1	-6.793478e-05
0	0.6471007	0.6470982	-4.4208048e-10	0.06816504	0.06816504	0	70844.586	70844.305	-4.5625e-05	646246.6	259692.08	-0.00029971226	259694.33	646245.4	-0.00030970268
0	0.6469849	0.64698243	4.5732463e-11	0.068023674	0.068023674	0	70831.914	70831.63	1.125e-05	646354.7	259421.92	7.9923275e-06	259424.19	646353.5	6.393862e-05
0	0.6468693	0.64686674	-4.801909e-10	0.06788232	0.06788232	0	70819.26	70818.98	-4.875e-05	646462.2	259152.61	-0.0005354859	259154.89	646460.9	-0.0001638427
0	0.6467526	0.64675003	-2.8201685e-10	0.067740716	0.067740716	0	70806.48	70806.2	-3.4375e-05	646570.44	258880.98	-0.0002657449	258883.23	646569.2	-0.00015185423
0	0.64663625	0.64663374	-6.021441e-10	0.06759932	0.06759932	0	70793.734	70793.46	-6.5625e-05	646678.4	258610.08	-0.000414602	258612.34	646677.1	-0.00045556267
0	0.64651847	0.64651585	-2.2866233e-10	0.06745809	0.06745809	0	70780.836	70780.555	-2.625e-05	646787.2	258336.27	-0.00019181585	258338.55	646785.94	-0.0001758312
0	0.6464021	0.64639956	-1.9055194e-10	0.067316726	0.067316726	0	70768.11	70767.83	-2.625e-05	646894.7	258065.97	-0.00010190217	258068.25	646893.5	-0.00019381393
0	0.64628404	0.64628154	-1.3719739e-10	0.06717498	0.067174986	0	70755.18	70754.91	-1.625e-05	647003.7	257791.75	-0.00013287245	257794.06	647002.4	-6.793478e-05
0	0.6461666	0.6461642	-2.2104024e-10	0.06703377	0.06703377	0	70742.32	70742.055	-2.75e-05	647111.44	257519.6	-0.00015984655	257521.89	647110.1	-0.00019581203
0	0.6460484	0.6460459	-4.1921425e-10	0.066892385	0.066892385	0	70729.38	70729.1	-4.5625e-05	647220.06	257245.45	-0.00031469789	257247.72	647218.8	-0.00025175832
0	0.6459293	0.6459268	-2.362844e-10	0.06675076	0.06675076	0	70716.34	70716.07	-2.25e-05	647329.25	256969.58	-0.00013586956	256971.84	647327.94	-0.00013986573
0	0.6458105	0.6458079	-2.9726102e-10	0.0666094	0.0666094	0	70703.32	70703.04	-3.25e-05	647438.1	256694.16	-0.0003276854	256696.47	647436.8	-7.193095e-05
0	0.6456916	0.645689	-4.6494672e-10	0.066468164	0.06646817	0	70690.32	70690.04	-5.125e-05	647546.5	256419.33	-0.00035965472	256421.64	647545.25	-0.0002877238
0	0.645572	0.6455695	-1.2195324e-10	0.06632643	0.06632643	0	70677.23	70676.94	-1.0625e-05	647655.44	256143.12	-9.990409e-05	256145.44	647654.2	-7.592711e-05
0	0.6454529	0.64545035	1.4481948e-10	0.06618507	0.06618507	0	70664.195	70663.91	1.78125e-05	647763.75	255868.08	0.00011189259	255870.38	647762.5	0.00010390025
0	0.64533144	0.6453288	-4.2683634e-10	0.06604384	0.06604384	0	70650.88	70650.6	-4.375e-05	647874	255587.6	-0.00029371804	255589.92	647872.75	-0.0003077046
0	0.64521146	0.64520884	-4.6494672e-10	0.065902434	0.065902434	0	70637.75	70637.46	-5.1875e-05	647983	255310.77	-0.0003246883	255313.11	647981.7	-0.00035965472
0	0.6450909	0.64508826	-1.98174e-10	0.06576085	0.06576085	0	70624.555	70624.27	-2.15625e-05	648091.75	255033.1	-0.0002078005	255035.45	648090.5	-5.9942457e-05
0	0.64496905	0.6449663	4.5732463e-11	0.065619476	0.065619476	0	70611.2	70610.92	6.25e-06	648201.56	254752.62	3.196931e-05	254754.97	648200.3	3.5965473e-05
0	0.6448486	0.64484596	-5.030571e-10	0.06547825	0.06547825	0	70598.02	70597.734	-5.625e-05	648310.25	254475.33	-0.00042858857	254477.67	648309	-0.00026774296
0	0.6447259	0.64472336	-3.8872594e-10	0.06533652	0.065336525	0	70584.6	70584.32	-4.1875e-05	648420.4	254193.56	-0.00033567776	254195.95	648419.1	-0.0002078005
0	0.64460385	0.6446013	-2.0579609e-10	0.06519514	0.06519514	0	70571.23	70570.945	-2.4375e-05	648530.4	253912.66	-0.00025375639	253914.97	648529.06	-0.00010390025
0	0.6444822	0.6444795	-3.8110387e-10	0.06505392	0.06505392	0	70557.91	70557.62	-4.25e-05	648639.25	253633.34	-0.00023177749	253635.7	648637.94	-0.0003636509
0	0.64435875	0.64435613	-1.6006363e-10	0.064912505	0.06491251	0	70544.38	70544.11	-1.84375e-05	648749.75	253350.11	-0.00016783888	253352.47	648748.44	-5.5946293e-05
0	0.6442359	0.6442333	-4.1159218e-10	0.06477093	0.06477093	0	70530.95	70530.664	-4.625e-05	648859.1	253068.8	-0.00030171036	253071.19	648857.9	-0.00030970268
0	0.6441123	0.64410967	-4.1921425e-10	0.06462956	0.06462956	0	70517.414	70517.12	-4.625e-05	648969.4	252785.44	-0.00034067297	252787.84	648968.06	-0.0002757353
0	0.6439889	0.6439864	-3.5823763e-10	0.06448818	0.06448818	0	70503.914	70503.625	-3.5625e-05	649078.94	252503.19	-0.00037563939	252505.56	649077.75	-0.00011988491
0	0.6438646	0.6438619	-3.1250516e-10	0.0643466	0.0643466	0	70490.3	70490.01	-3.375e-05	649189.3	252218.72	-0.0002957161	252221.11	649188	-0.00019181585
0	0.6437399	0.6437373	-3.658597e-10	0.06420524	0.06420524	0	70476.65	70476.36	-3.625e-05	649299.7	251933.8	-0.0002757353	251936.2	649298.44	-0.00021579284
0	0.6436139	0.6436112	-6.402545e-10	0.064063966	0.064063966	0	70462.84	70462.56	-7.125e-05	649410.8	251646.3	-0.00046355498	251648.69	649409.5	-0.000439578
0	0.64348936	0.64348674	-1.9055194e-10	0.063922584	0.063922584	0	70449.23	70448.93	-2.5e-05	649520.6	251362.11	-0.00027173912	251364.53	649519.3	-5.5946293e-05
0	0.6433638	0.64336103	-3.5823763e-10	0.063781016	0.063781016	0	70435.46	70435.17	-3.75e-05	649631.5	251075.34	-0.0003856298	251077.72	649630.25	-0.00011988491
0	0.6432387	0.6432361	-4.4208048e-10	0.06363963	0.06363963	0	70421.77	70421.49	-5.3125e-05	649741.4	250790.53	-0.00033567776	250792.92	649740	-0.00030370845
0	0.64311206	0.64310944	-2.1341817e-10	0.06349825	0.06349824	0	70407.92	70407.625	-2.375e-05	649852.4	250502.1	-0.00013986573	250504.5	649851.1	-0.00019381393
0	0.64298576	0.64298296	-3.658597e-10	0.06335668	0.06335668	0	70394.07	70393.78	-3.9375e-05	649963.2	250214.34	-0.00023277654	250216.77	649961.9	-0.0003077046
0	0.6428586	0.64285594	-2.6677272e-10	0.063215286	0.06321527	0	70380.16	70379.86	-2.875e-05	650074.2	249925.47	-0.00022378517	249927.9	650072.9	-0.00019181585
0	0.64273185	0.64272916	-3.353714e-10	0.06307404	0.06307404	0	70366.28	70365.984	-3.3125e-05	650184.7	249637.45	-0.00018582161	249639.88	650183.3	-0.00021579284
0	0.642604	0.6426013	-3.96348e-10	0.062932655	0.062932655	0	70352.28	70351.984	-4.0625e-05	650295.9	249347.23	-0.00031669598	249349.66	650294.6	-0.00023976983
0	0.64247626	0.64247364	-6.097662e-11	0.062790945	0.062790945	0	70338.305	70338.016	-5.9375e-06	650406.56	249057.73	-2.3976982e-05	249060.19	650405.3	-6.793478e-05
0	0.642347	0.64234436	-3.5061556e-10	0.062649705	0.062649705	0	70324.15	70323.87	-3.875e-05	650518.56	248764.84	-0.00019181585	248767.3	650517.25	-0.0002877238
0	0.642218	0.6422153	-3.8872594e-10	0.06250833	0.06250833	0	70310.02	70309.734	-4.3125e-05	650630.1	248472.6	-0.00039362212	248475.1	650628.75	-0.00018382353
0	0.64209044	0.64208776	3.8110386e-11	0.06236674	0.06236674	0	70296.06	70295.766	3.4375e-06	650740.5	248183.69	9.890505e-05	248186.14	650739.25	-5.9942457e-05
0	0.6419596	0.64195687	-1.98174e-10	0.062225346	0.062225346	0	70281.734	70281.445	-2.6875e-05	650853.25	247887.78	-0.00023177749	247890.23	650851.9	-0.000115888746
0	0.64183086	0.6418281	-4.4208048e-10	0.062084112	0.06208412	0	70267.64	70267.34	-4.875e-05	650963.94	247596.7	-0.00040561063	247599.16	650962.7	-0.00024376599
0	0.6416989	0.6416962	-5.9452204e-10	0.061942413	0.061942413	0	70253.2	70252.9	-7.09375e-05	651077.25	247298.69	-0.0004076087	247301.14	651075.94	-0.0004715473
0	0.64157027	0.6415676	-3.353714e-10	0.06180102	0.06180102	0	70239.11	70238.82	-3.875e-05	651187.25	247008.64	-0.00017483217	247011.12	651186	-0.00031170077
0	0.6414378	0.6414351	-4.5732465e-10	0.06165979	0.06165979	0	70224.62	70224.32	-5.375e-05	651300.1	246710.39	-0.00038762786	246712.88	651298.75	-0.00028372763
0	0.64130867	0.641306	-4.1159218e-10	0.061518367	0.061518367	0	70210.47	70210.18	-4.5e-05	651410.7	246418.97	-0.00027173912	246421.45	651409.44	-0.00030370845
0	0.64117575	0.64117306	-3.8110386e-11	0.061376818	0.06137681	0	70195.92	70195.625	-6.25e-06	651523.8	246119.86	-9.990409e-05	246122.38	651522.4	-7.9923275e-06
0	0.6410448	0.64104205	-4.5732465e-10	0.061235435	0.061235435	0	70181.586	70181.28	-5.25e-05	651635.06	245825.22	-0.00029371804	245827.7	651633.75	-0.0004076087
0	0.6409129	0.64091015	-1.06709086e-10	0.061094042	0.061094042	0	70167.14	70166.84	-1.3125e-05	651746.94	245528.64	-3.9961637e-05	245531.12	651745.6	-8.391944e-05
0	0.640779	0.64077634	-3.8110387e-10	0.0609525	0.060952503	0	70152.5	70152.195	-4.625e-05	651859.9	245228.39	-0.00031569693	245230.89	651858.56	-0.00024776216
0	0.6406466	0.64064384	-3.96348e-10	0.060811102	0.060811102	0	70137.99	70137.69	-4.375e-05	651972	244930.75	-0.00031369884	244933.27	651970.7	-0.00027173912
0	0.6405131	0.6405104	-3.048831e-10	0.06066984	0.06066984	0	70123.37	70123.07	-3.21875e-05	652084.7	244631.1	-0.00027973147	244633.6	652083.4	-0.00013586956
0	0.64037937	0.6403767	-5.2592336e-10	0.060528446	0.060528446	0	70108.73	70108.43	-5.875e-05	652196.94	244331.66	-0.00045556267	244334.16	652195.7	-0.00031170077
0	0.6402452	0.64024246	-3.4299347e-10	0.060386896	0.060386896	0	70094.05	70093.75	-3.625e-05	652309.56	244031.23	-0.00023976983	244033.75	652308.25	-0.00022378517
0	0.640111	0.6401083	-3.048831e-10	0.060245506	0.060245506	0	70079.35	70079.055	-3.375e-05	652421.9	243730.98	-0.00024776216	243733.48	652420.6	-0.00017183504
0	0.63997614	0.6399734	-1.2957531e-10	0.060104124	0.060104124	0	70064.586	70064.29	-1.4375e-05	652534.6	243429.48	-4.295876e-05	243432	652533.25	-0.00014186381
0	0.6398408	0.639838	-2.0579609e-10	0.05996258	0.05996258	0	70049.76	70049.46	-2.375e-05	652647.6	243126.86	-0.00016683983	243129.39	652646.25	-0.00016783888
0	0.639705	0.6397022	-5.1830124e-10	0.059821147	0.059821147	0	70034.91	70034.59	-5.4375e-05	652760.5	242823.88	-0.000415601	242826.42	652759.1	-0.00031569693
0	0.6395689	0.63956624	-2.2866233e-10	0.059679918	0.059679918	0	70020.01	70019.7	-2.1875e-05	652873.8	242520.3	-0.00019880914	242522.84	652872.44	-0.00015185423
0	0.6394319	0.63942915	-4.725688e-10	0.05953851	0.05953851	0	70005.01	70004.695	-4.75e-05	652987.2	242214.89	-0.00050551473	242217.45	652985.8	-0.00016783888
0	0.63929605	0.63929325	-4.725688e-10	0.059396826	0.059396826	0	69990.13	69989.836	-5.34375e-05	653099.6	241912.33	-0.00042059622	241914.89	653098.3	-0.00028172953
0	0.6391583	0.6391555	1.5244155e-11	0.059255596	0.059255596	0	69975.055	69974.75	4.375e-06	653213.4	241605.75	2.5975063e-05	241608.28	653212	3.196931e-05
0	0.6390203	0.6390176	-6.097662e-10	0.059114188	0.059114188	0	69959.945	69959.65	-7.0625e-05	653326.8	241299.17	-0.0004835358	241301.73	653325.5	-0.00044757035
0	0.638883	0.63888025	-3.5061556e-10	0.058972627	0.058972627	0	69944.92	69944.61	-3.71875e-05	653439.8	240993.9	-0.0003196931	240996.47	653438.5	-0.00013586956
0	0.63874453	0.6387417	0	0.058831234	0.058831234	0	69929.75	69929.45	6.25e-07	653553.4	240686.45	-2.5975063e-05	240689.02	653552.06	3.5965473e-05
0	0.63860345	0.63860065	6.8598696e-11	0.05868999	0.05868999	0	69914.31	69914	1.25e-05	653668.56	240373.69	3.296835e-05	240376.28	653667.3	7.992327e-05
0	0.63846534	0.6384626	-4.1921425e-10	0.0585483	0.0585483	0	69899.18	69898.88	-4.625e-05	653781.56	240067.34	-0.00037563939	240069.92	653780.2	-0.00020380435
0	0.6383257	0.6383229	-5.411675e-10	0.058406904	0.058406904	0	69883.9	69883.586	-5.6875e-05	653895.25	239758.16	-0.0004765425	239760.77	653893.8	-0.0003276854
0	0.6381872	0.63818437	-1.4481948e-10	0.058265664	0.058265664	0	69868.73	69868.43	-1.75e-05	654008.25	239451.2	-2.8972187e-05	239453.83	654006.94	-0.00016783888
0	0.6380471	0.6380443	-7.622077e-11	0.05812423	0.05812423	0	69853.39	69853.08	-1.0625e-05	654122.06	239141.31	-0.0001758312	239143.92	654120.7	4.39578e-05
0	0.6379058	0.63790303	-4.2683634e-10	0.057982713	0.057982713	0	69837.94	69837.63	-4.5e-05	654236.25	238829.36	-0.00036564897	238831.95	654234.94	-0.00023177749
0	0.63776493	0.63776207	-1.3719739e-10	0.05784131	0.05784131	0	69822.5	69822.18	-1.125e-05	654350.5	238517.7	-5.1950126e-05	238520.34	654349.2	-0.0001438619
0	0.6376233	0.63762045	-1.5244155e-10	0.057699904	0.057699904	0	69807	69806.7	-1.3125e-05	654464.75	238205.31	-2.3976982e-05	238207.95	654463.44	-0.00014785805
0	0.6374818	0.63747895	-3.4299347e-10	0.057558388	0.057558388	0	69791.51	69791.195	-3.625e-05	654578.56	237893.3	-0.00036764707	237895.95	654577.2	-0.00017383312
0	0.6373393	0.6373365	-3.4299347e-10	0.057416987	0.057416987	0	69775.9	69775.59	-4.6875e-05	654692.94	237579.42	-0.00014086477	237582.08	654691.6	-0.00037963554
0	0.6371961	0.6371933	-3.048831e-11	0.05727571	0.05727571	0	69760.23	69759.92	-2.5e-06	654807.7	237264.19	-1.5984655e-05	237266.84	654806.4	-3.196931e-05
0	0.6370532	0.6370504	1.5244155e-11	0.0571343	0.0571343	0	69744.58	69744.27	5e-06	654922.2	236949.61	9.990409e-06	236952.25	654920.8	1.7982737e-05
0	0.63690984	0.6369069	-4.4970255e-10	0.05699279	0.05699279	0	69728.89	69728.57	-4.8125e-05	655036.5	236634.56	-0.00038962596	236637.25	655035.2	-0.00023976983
0	0.6367658	0.63676286	-4.344584e-10	0.056851387	0.056851387	0	69713.11	69712.8	-4.84375e-05	655151.25	236318.05	-0.000415601	236320.73	655149.94	-0.00026774296
0	0.63661987	0.63661695	-3.353714e-10	0.056709986	0.056709986	0	69697.13	69696.83	-3.8125e-05	655266.75	235998.25	-0.00031669598	236000.92	655265.44	-0.0001538523
0	0.6364769	0.636474	-4.1159218e-10	0.05656847	0.05656847	0	69681.49	69681.17	-4.4375e-05	655380.4	235684.58	-0.00044357416	235687.27	655379.06	-0.00014785805
0	0.63633054	0.6363277	-4.95435e-10	0.05642703	0.05642703	0	69665.48	69665.16	-5.1875e-05	655496.06	235364.1	-0.00048753197	235366.77	655494.75	-0.00023177749
0	0.63618505	0.6361822	-4.5732465e-10	0.056285787	0.056285787	0	69649.54	69649.23	-5.4375e-05	655610.9	235045.5	-0.00031569693	235048.17	655609.56	-0.00036764707
0	0.63603926	0.6360364	-3.2774933e-10	0.056144364	0.056144364	0	69633.57	69633.26	-3.4375e-05	655726.06	234726.23	-0.00026774296	234728.92	655724.7	-0.00021579284
0	0.63589364	0.6358907	-3.048831e-10	0.056002706	0.056002706	0	69617.64	69617.33	-3.4375e-05	655840.5	234407.95	-0.00027173912	234410.62	655839.2	-0.00014785805
0	0.6357458	0.6357429	7.622077e-11	0.055861473	0.05586147	0	69601.445	69601.13	7.5e-06	655956.2	234085.17	-2.5975063e-05	234087.88	655954.9	0.000115888746
0	0.6355988	0.6355958	-4.725688e-10	0.055720054	0.055720054	0	69585.35	69585.03	-5.125e-05	656071.44	233764.08	-0.00030370845	233766.78	656070.1	-0.00035565856
0	0.6354512	0.63544834	-7.6220774e-12	0.05557856	0.05557856	0	69569.2	69568.89	-2.5e-06	656186.8	233442.2	-0.00012787724	233444.92	656185.44	9.191177e-05
0	0.63530326	0.63530034	-6.021441e-10	0.055437103	0.05543711	0	69552.984	69552.68	-6.875e-05	656302.2	233119.6	-0.00040561063	233122.31	656300.9	-0.00047554346
0	0.6351545	0.6351516	6.8598696e-11	0.05529586	0.05529586	0	69536.72	69536.4	6.875e-06	656417.9	232795.77	-7.992327e-05	232798.5	656416.5	0.00015585039
0	0.63500553	0.6350027	-5.4878957e-10	0.055154454	0.055154454	0	69520.39	69520.08	-5.9375e-05	656533.1	232471.81	-0.00042659047	232474.53	656531.8	-0.00037563939
0	0.63485646	0.6348536	-5.030571e-10	0.05501279	0.05501279	0	69504.086	69503.766	-5.125e-05	656648.5	232147.83	-0.00032568735	232150.56	656647.1	-0.00037164323
0	0.6347056	0.63470274	-4.4970255e-10	0.054871544	0.054871544	0	69487.58	69487.26	-4.5e-05	656765.2	231820.06	-0.00031769503	231822.8	656763.8	-0.0003196931
0	0.634556	0.6345531	-8.384285e-11	0.05473012	0.05473013	0	69471.195	69470.875	-1.625e-05	656880.6	231495.11	-9.5907926e-05	231497.84	656879.25	-8.391944e-05
0	0.6344055	0.6344026	-2.362844e-10	0.054588605	0.054588605	0	69454.72	69454.41	-2.8125e-05	656996.25	231168.81	-9.3909846e-05	231171.55	656994.9	-0.00025575448
0	0.6342541	0.6342511	-1.3719739e-10	0.05444718	0.05444719	0	69438.13	69437.82	-1.5625e-05	657112.44	230840.5	-0.00015784847	230843.23	657111.1	-1.5984655e-05
0	0.6341025	0.63409954	-4.5732465e-10	0.05430595	0.05430595	0	69421.53	69421.21	-4.6875e-05	657228.5	230512.12	-0.0003196931	230514.9	657227.2	-0.0003276854
0	0.6339505	0.6339476	9.1464926e-11	0.054164287	0.05416429	0	69404.91	69404.58	7.5e-06	657344.6	230183.28	-3.9961637e-05	230186.05	657343.3	0.000115888746
0	0.63379794	0.6337949	-3.1250516e-10	0.05402286	0.05402286	0	69388.19	69387.87	-3.3125e-05	657460.9	229853.3	-0.0003027094	229856.08	657459.56	-0.00015585039
0	0.6336448	0.63364196	-3.2012726e-10	0.053881623	0.053881623	0	69371.44	69371.12	-3.375e-05	657577	229522.98	-0.00044757035	229525.77	657575.7	0
0	0.6334922	0.63348925	-1.06709086e-10	0.053740162	0.053740162	0	69354.72	69354.4	-1e-05	657692.94	229193.3	-0.000115888746	229196.06	657691.56	-3.396739e-05
0	0.63333726	0.6333344	-5.411675e-10	0.053598687	0.053598687	0	69337.766	69337.445	-5.6875e-05	657809.9	228859.58	-0.0003836317	228862.38	657808.5	-0.00035965472
0	0.6331819	0.63317895	-6.097662e-11	0.053457264	0.053457264	0	69320.76	69320.44	-6.25e-06	657927.75	228524.23	-0.0001438619	228527.05	657926.4	6.393862e-05
0	0.63302904	0.63302606	-3.048831e-10	0.053315833	0.05331584	0	69304.02	69303.69	-3.1875e-05	658042.7	228195.25	-0.00022278613	228198.06	658041.25	-0.00018382353
0	0.63287264	0.6328697	-1.6006363e-10	0.053174376	0.053174376	0	69286.9	69286.57	-1.75e-05	658160.1	227858.77	-0.00024776216	227861.56	658158.9	-1.1988491e-05
0	0.63271815	0.63271517	-2.1341817e-10	0.053032946	0.053032946	0	69269.984	69269.664	-2.0625e-05	658276.1	227526.55	-0.0002877238	227529.36	658274.75	-7.9923275e-06
0	0.6325621	0.6325591	-2.0579609e-10	0.05289166	0.052891657	0	69252.9	69252.57	-2.25e-05	658392.9	227191.25	-6.493766e-05	227194.05	658391.56	-0.00023177749
0	0.63240516	0.6324021	-4.8781296e-10	0.052750226	0.052750226	0	69235.71	69235.39	-5.25e-05	658510	226854.39	-0.0003266864	226857.2	658508.7	-0.0003636509
0	0.6322475	0.6322445	-2.2866233e-10	0.052608766	0.052608766	0	69218.46	69218.125	-2.4375e-05	658627.44	226516.3	-0.0001438619	226519.11	658626.06	-0.00011988491
0	0.632091	0.63208795	-4.1921425e-10	0.052467342	0.052467342	0	69201.33	69201	-4.8125e-05	658743.94	226180.58	-0.00037963554	226183.45	658742.6	-0.0002417679
0	0.6319334	0.63193053	-4.95435e-10	0.052325908	0.052325908	0	69184.07	69183.75	-5.75e-05	658860.56	225843.42	-0.00045056746	225846.23	658859.3	-0.0002877238
0	0.6317743	0.6317714	-4.95435e-10	0.05218446	0.05218445	0	69166.66	69166.33	-5.375e-05	658978.3	225502.94	-0.00036764707	225505.78	658977	-0.0003836317
0	0.6316154	0.6316125	-5.3354543e-10	0.052042983	0.052042987	0	69149.26	69148.94	-5.9375e-05	659095.5	225163.28	-0.0005224984	225166.08	659094.2	-0.00027173912
0	0.6314572	0.6314542	-2.362844e-10	0.051901728	0.051901728	0	69131.94	69131.61	-2.125e-05	659212.06	224825.25	-0.00020180627	224828.12	659210.75	-0.00010789642
0	0.63129604	0.63129294	-3.2774933e-10	0.051760297	0.051760297	0	69114.29	69113.96	-3.40625e-05	659330.3	224481.28	-0.0002957161	224484.11	659329	-0.0001638427
0	0.6311371	0.631134	-4.5732465e-10	0.051618665	0.051618665	0	69096.88	69096.555	-4.875e-05	659446.94	224142.02	-0.00039961637	224144.86	659445.6	-0.00025775254
0	0.63097566	0.6309726	-4.5732465e-10	0.05147742	0.05147742	0	69079.21	69078.88	-5.0625e-05	659564.94	223798.05	-0.00021779092	223800.89	659563.56	-0.000439578
0	0.6308142	0.63081115	-1.8292985e-10	0.051335983	0.051335983	0	69061.54	69061.21	-1.75e-05	659682.6	223454.38	-0.00016783888	223457.23	659681.25	-7.592711e-05
0	0.6306531	0.6306501	-4.1159218e-10	0.051194496	0.051194493	0	69043.9	69043.57	-4.625e-05	659800	223111.42	-0.00037563939	223114.31	659798.7	-0.00023177749
0	0.63049096	0.6304879	-2.2866233e-10	0.051053066	0.051053066	0	69026.14	69025.82	-2.3125e-05	659917.9	222766.56	-0.000219789	222769.44	659916.56	-0.00010390025
0	0.6303282	0.63032514	-6.8598696e-11	0.050911807	0.05091181	0	69008.32	69007.99	-1e-05	660035.7	222420.84	-0.00012787724	222423.72	660034.4	1.5984655e-05
0	0.63016516	0.6301622	-3.2012726e-10	0.050770186	0.050770186	0	68990.484	68990.15	-3.25e-05	660153.44	222074.9	-0.00018682065	222077.8	660152.1	-0.0002877238
0	0.63000077	0.6299978	7.622077e-11	0.050628755	0.050628755	0	68972.49	68972.16	5e-06	660271.56	221726.73	-1.5984655e-05	221729.66	660270.2	7.992327e-05
0	0.6298365	0.62983334	-3.353714e-10	0.050487496	0.050487496	0	68954.49	68954.164	-3.5e-05	660390	221378.16	-0.0003246883	221381.05	660388.7	-0.00020380435
0	0.6296727	0.62966967	-5.1830124e-10	0.050346017	0.050346017	0	68936.57	68936.234	-5.8125e-05	660507.5	221031.47	-0.00039861733	221034.36	660506.1	-0.0003316816
0	0.62950796	0.62950486	-8.384285e-11	0.050204586	0.050204586	0	68918.53	68918.2	-1.25e-05	660625.5	220682.67	-0.00017483217	220685.55	660624.2	1.1988491e-05
0	0.6293425	0.62933946	-3.353714e-10	0.050063144	0.050063144	0	68900.42	68900.09	-3.75e-05	660743.7	220332.94	-0.0002078005	220335.86	660742.3	-0.00027173912
0	0.62917656	0.6291736	-2.8963895e-10	0.0499217	0.049921695	0	68882.26	68881.92	-3e-05	660861.75	219982.58	-0.00026774296	219985.5	660860.4	-0.00012388108
0	0.6290098	0.6290068	-1.3719739e-10	0.049780272	0.04978028	0	68864	68863.664	-1e-05	660980	219630.75	-5.1950126e-05	219633.66	660978.75	-0.00010789642
0	0.6288422	0.6288392	-2.0579609e-10	0.049638826	0.049638826	0	68845.65	68845.32	-2.5625e-05	661098.94	219277.33	-0.00019181585	219280.25	661097.56	-0.00010789642
0	0.6286753	0.62867224	-1.6006363e-10	0.04949753	0.04949753	0	68827.37	68827.03	-1.9375e-05	661217.1	218925.36	-0.00023577365	218928.3	661215.8	0
0	0.6285074	0.62850434	-4.039701e-10	0.049356084	0.049356084	0	68808.984	68808.65	-4.625e-05	661335.6	218571.81	-0.00032868446	218574.78	661334.2	-0.00028372763
0	0.6283393	0.6283363	-1.2195324e-10	0.049214657	0.049214657	0	68790.586	68790.266	-1.0625e-05	661453.56	218218.48	-2.7973147e-05	218221.44	661452.25	-0.00012787724
0	0.6281696	0.62816644	-3.353714e-10	0.04907321	0.04907321	0	68772	68771.664	-4.1875e-05	661572.6	217861.75	-0.00028472667	217864.69	661571.3	-0.00022778133
0	0.6279996	0.62799656	-1.2957531e-10	0.048931766	0.048931766	0	68753.4	68753.06	-2e-05	661691.5	217504.88	-0.00016184463	217507.86	661690.25	-7.592711e-05
0	0.62782985	0.62782675	-6.402545e-10	0.04879036	0.04879036	0	68734.82	68734.48	-6.59375e-05	661810.1	217148.64	-0.0005394821	217151.61	661808.8	-0.0003516624
0	0.62765896	0.6276558	-2.1341817e-10	0.048648857	0.048648857	0	68716.1	68715.766	-2.375e-05	661929.3	216790.23	-0.0002757353	216793.23	661928	-8.79156e-05
0	0.62748885	0.62748575	-3.048831e-10	0.04850761	0.04850761	0	68697.48	68697.14	-3.5e-05	662047.7	216433.7	-0.0002957161	216436.7	662046.4	-0.00014785805
0	0.6273174	0.62731427	-1.8292985e-10	0.048366144	0.048366144	0	68678.71	68678.37	-1.9375e-05	662166.56	216074.72	-0.00019980819	216077.72	662165.25	-6.793478e-05
0	0.6271447	0.6271416	-4.8781296e-10	0.04822455	0.04822455	0	68659.805	68659.46	-4.9375e-05	662285.94	215713.62	-0.00021379476	215716.6	662284.6	-0.00043158568
0	0.62697244	0.62696934	-2.1341817e-10	0.048083294	0.048083294	0	68640.945	68640.6	-2.625e-05	662404.94	215353.52	-0.00021079763	215356.47	662403.56	-0.00012388108
0	0.6267984	0.6267954	-9.9087e-11	0.04794183	0.04794183	0	68621.89	68621.555	-8.75e-06	662524.4	214990.4	-0.0001758312	214993.42	662523.1	1.9980818e-05
0	0.6266259	0.6266228	-2.2104024e-10	0.047800392	0.047800392	0	68603.01	68602.67	-2.8125e-05	662642.8	214630.45	-0.00012388108	214633.45	662641.5	-0.00019581203
0	0.6264515	0.6264483	-2.5152855e-10	0.047658946	0.047658946	0	68583.91	68583.57	-2.875e-05	662762.25	214266.75	-0.00037464034	214269.73	662760.94	-1.5984655e-05
0	0.62627614	0.62627304	-5.2592336e-10	0.047517676	0.047517676	0	68564.7	68564.375	-5.9375e-05	662881.8	213901.69	-0.0004835358	213904.66	662880.5	-0.0002757353
0	0.626101	0.62609786	-3.5823763e-10	0.047376227	0.04737623	0	68545.54	68545.195	-3.375e-05	663001.2	213537.19	-0.00028073048	213540.2	662999.9	-0.00015185423
0	0.6259251	0.62592196	-4.1159218e-10	0.04723464	0.047234632	0	68526.28	68525.945	-4.5e-05	663120.7	213171.45	-0.00030970268	213174.47	663119.4	-0.0003077046
0	0.62575	0.6257469	-3.5061556e-10	0.047093365	0.047093365	0	68507.1	68506.766	-3.875e-05	663239.7	212807.28	-0.00028372763	212810.3	663238.4	-0.00024376599
0	0.6255733	0.6255701	-4.4208048e-10	0.046951856	0.046951856	0	68487.766	68487.42	-4.875e-05	663359.06	212440.48	-0.00042659047	212443.53	663357.7	-0.00024776216
0	0.62539536	0.6253923	-2.8201685e-10	0.04681048	0.04681048	0	68468.29	68467.945	-3.5e-05	663479.1	212071.44	-0.00025675353	212074.45	663477.7	-0.00018382353
0	0.6252175	0.6252144	-4.344584e-10	0.046669014	0.046669014	0	68448.81	68448.47	-4.625e-05	663598.56	211702.98	-0.00043158568	211706.02	663597.2	-0.00019581203
0	0.6250397	0.62503666	-2.8963895e-10	0.046527762	0.04652776	0	68429.35	68429.016	-3.09375e-05	663717.8	211334.77	-0.00024776216	211337.8	663716.56	-0.0001438619
0	0.62485975	0.6248566	-4.5732465e-10	0.04638618	0.04638618	0	68409.65	68409.305	-5.4375e-05	663838.1	210962.55	-0.00044257514	210965.6	663836.75	-0.00025175832
0	0.62468034	0.62467724	-6.250103e-10	0.046244707	0.04624471	0	68390.01	68389.664	-6.75e-05	663957.94	210591.5	-0.00050351664	210594.56	663956.6	-0.00039961637
0	0.6245009	0.62449783	-5.030571e-10	0.04610345	0.04610345	0	68370.36	68370.016	-5.5625e-05	664077.44	210220.81	-0.00049952045	210223.88	664076.2	-0.00024376599
0	0.6243194	0.6243163	-2.7439478e-10	0.045961928	0.045961928	0	68350.49	68350.15	-2.75e-05	664197.9	209846.23	-0.00021579284	209849.27	664196.56	-0.00015984655
0	0.6241393	0.6241362	-3.048831e-10	0.04582056	0.04582056	0	68330.766	68330.43	-3.21875e-05	664317.3	209474.67	-0.0004076087	209477.75	664315.94	-2.3976982e-05
0	0.6239575	0.6239543	-1.7530778e-10	0.0456791	0.0456791	0	68310.86	68310.516	-2.4375e-05	664437.3	209100.02	-0.0002757353	209103.1	664436	-7.9923275e-06
0	0.6237753	0.62377214	9.9087e-11	0.04553762	0.04553762	0	68290.91	68290.57	8.75e-06	664557.3	208724.95	-6.59367e-05	208728.03	664555.94	0.00018781969
0	0.623592	0.6235888	-4.4208048e-10	0.045396265	0.045396265	0	68270.85	68270.51	-4.78125e-05	664677.6	208348.02	-0.00042359336	208351.11	664676.4	-0.00019181585
0	0.6234083	0.6234053	-5.4878957e-10	0.04525479	0.045254786	0	68250.76	68250.41	-5.75e-05	664797.94	207970.86	-0.0003956202	207973.94	664796.5	-0.00039162405
0	0.6232246	0.6232214	-4.4970255e-10	0.04511347	0.04511347	0	68230.625	68230.27	-4.9375e-05	664918.1	207593.25	-0.00042559142	207596.36	664916.75	-0.0002637468
0	0.62303996	0.6230368	-4.039701e-10	0.04497199	0.044972	0	68210.414	68210.06	-4.625e-05	665038.44	207214.34	-0.00031170077	207217.45	665037.2	-0.00027973147
0	0.62285495	0.6228517	-6.097662e-11	0.04483065	0.04483065	0	68190.16	68189.81	-5e-06	665158.75	206835.06	-4.7953963e-05	206838.16	665157.44	-3.9961637e-06
0	0.6226691	0.62266594	-5.411675e-10	0.044689175	0.044689175	0	68169.82	68169.47	-5.5625e-05	665279.3	206454.31	-0.00040261348	206457.42	665278.06	-0.00035965472
0	0.6224833	0.62248015	-1.676857e-10	0.044547684	0.044547684	0	68149.48	68149.13	-1.71875e-05	665399.56	206074.02	-7.592711e-05	206077.14	665398.2	-0.00013586956
0	0.6222972	0.622294	0	0.04440635	0.04440635	0	68129.09	68128.75	6.25e-07	665519.44	205693.48	-3.9961637e-05	205696.62	665518.2	1.9980818e-05