# t (s)	mx ()	my ()	mz ()	B_extx (T)	B_exty (T)	B_extz (T)	m_fullx (A/m)	m_fully (A/m)	m_fullz (A/m)	m_full.region1x (A/m)	m_full.region1y (A/m)	m_full.region1z (A/m)	m_full.region2x (A/m)	m_full.region2y (A/m)	m_full.region2z (A/m)
0	0.65244126	0.65243816	-2.5592956e-10	0.07071087	0.07071087	0	80837.48	80837.086	-4.25e-05	619227.6	294187.4	-0.00019774011	294190.06	619225.94	-0.00019067797
0	0.6523524	0.65235126	-2.5592956e-10	0.07056911	0.07056911	0	80826.47	80826.32	-3.4375e-05	619301.25	293991.22	-0.00021892655	293992.2	619300.5	-0.00012711865
0	0.6522602	0.6522591	-2.828695e-10	0.07042788	0.07042789	0	80815.02	80814.91	-4.25e-05	619380.44	293782.8	-0.00032485876	293783.62	619380	-0.00021892655
0	0.6521674	0.6521663	-6.734988e-11	0.07028652	0.07028653	0	80803.52	80803.41	-1.125e-05	619460.06	293573.4	-0.00013771186	293574.2	619459.5	2.8248587e-05
0	0.65207386	0.65207285	-3.367494e-10	0.070144884	0.070144884	0	80791.95	80791.836	-2.5e-05	619540.25	293362.28	-0.00019067797	293363.16	619539.7	-0.00019067797
0	0.6519813	0.65198034	-4.1756926e-10	0.07000352	0.07000352	0	80780.484	80780.37	-4.75e-05	619620.2	293152.88	-0.0002259887	293153.7	619619.6	-0.00029661017
0	0.651888	0.65188694	-4.0409928e-10	0.06986229	0.06986229	0	80768.92	80768.8	-4.5e-05	619700.1	292942.25	-0.00038135593	292943.1	619699.5	-0.0002259887
0	0.65179443	0.6517935	-2.0204964e-10	0.069720544	0.069720544	0	80757.33	80757.21	-3.5e-05	619780	292731.4	-0.00019067797	292732.25	619779.44	-0.00019067797
0	0.6517006	0.6516996	1.2122979e-10	0.069579184	0.069579184	0	80745.71	80745.586	1.75e-05	619860	292520.03	8.474576e-05	292520.88	619859.44	0.00012711865
0	0.651606	0.65160507	-1.7510969e-10	0.069437966	0.069437966	0	80733.99	80733.87	-1.75e-05	619940.56	292307.16	-3.5310735e-05	292308.03	619939.9	-0.00022245763
0	0.6515125	0.6515115	-5.65739e-10	0.069296576	0.069296576	0	80722.39	80722.28	-6.75e-05	620020.7	292095.94	-0.00039548022	292096.78	620020.06	-0.00040960452
0	0.65141803	0.6514171	-3.906293e-10	0.069154955	0.06915496	0	80710.695	80710.57	-5e-05	620100.75	291883.7	-0.00031073447	291884.5	620100.1	-0.00028248588
0	0.6513224	0.6513215	-1.8857967e-10	0.069013596	0.069013596	0	80698.85	80698.73	-2.375e-05	620181.8	291668.88	-0.0002118644	291669.72	620181.2	-1.4124294e-05
0	0.65122837	0.6512273	-5.7920896e-10	0.068872236	0.068872236	0	80687.19	80687.07	-6e-05	620261.9	291457	-0.0005084746	291457.88	620261.25	-0.0003036723
0	0.6511335	0.65113235	-2.828695e-10	0.06873064	0.06873064	0	80675.42	80675.3	-4e-05	620342.4	291243.53	-0.0003177966	291244.38	620341.9	-0.00017655367
0	0.65103835	0.65103734	-4.3103923e-10	0.06858927	0.06858927	0	80663.65	80663.52	-5.125e-05	620422.75	291030.06	-0.00034604518	291030.9	620422.2	-0.00023305084
0	0.65094167	0.6509407	0	0.06844801	0.06844801	0	80651.68	80651.55	0	620503.7	290813.88	-2.8248587e-05	290814.72	620503.1	9.180791e-05
0	0.6508468	0.6508458	-2.5592956e-10	0.06830664	0.06830665	0	80639.92	80639.8	-2.5e-05	620584.25	290600.4	-0.0002683616	290601.28	620583.7	-0.0001341808
0	0.65075135	0.65075034	-2.1551962e-10	0.06816504	0.06816504	0	80628.09	80627.97	-2.5e-05	620664.25	290386.72	-9.8870056e-05	290387.6	620663.75	-0.00014124294
0	0.65065444	0.6506534	-2.2898959e-10	0.068023674	0.068023674	0	80616.086	80615.96	-2.75e-05	620745.75	290169.62	-0.0002118644	290170.5	620745.1	-0.000120056495
0	0.6505582	0.65055716	-4.0409928e-10	0.06788232	0.06788232	0	80604.16	80604.02	-4.75e-05	620826.44	289954.1	-0.00031073447	289954.97	620825.94	-0.00023658192
0	0.6504619	0.6504608	-4.7144916e-10	0.067740716	0.067740716	0	80592.23	80592.1	-5.5e-05	620907.06	289738.6	-0.0003036723	289739.44	620906.56	-0.00033898305
0	0.65036505	0.6503641	-3.6368936e-10	0.06759932	0.06759932	0	80580.234	80580.11	-4.5e-05	620987.94	289522.3	-0.00025776835	289523.2	620987.3	-0.0002259887
0	0.65026796	0.650267	-3.5021938e-10	0.06745809	0.06745809	0	80568.21	80568.08	-3.875e-05	621068.9	289305.44	-0.00032485876	289306.28	621068.4	-0.00016949153
0	0.65017104	0.65017	-2.828695e-10	0.067316726	0.067316726	0	80556.195	80556.06	-3.0625e-05	621149.6	289088.94	-0.00011299435	289089.78	621149.06	-0.0003036723
0	0.6500727	0.65007174	-1.7510969e-10	0.067174986	0.067174986	0	80544.01	80543.88	-1.75e-05	621230.6	288870.4	-0.00019774011	288871.22	621230	-3.5310735e-05
0	0.6499747	0.64997363	-4.0409928e-10	0.06703377	0.06703377	0	80531.87	80531.734	-5.25e-05	621312.3	288651.47	-0.0002542373	288652.28	621311.7	-0.0003319209
0	0.6498782	0.6498772	-1.7510969e-10	0.066892385	0.066892385	0	80519.92	80519.79	-2.6875e-05	621392.5	288436.28	-0.00024011299	288437.12	621391.8	-9.180791e-05
0	0.6497793	0.64977837	-3.5021938e-10	0.06675076	0.06675076	0	80507.66	80507.53	-4.25e-05	621473.7	288216.5	-0.0002683616	288217.3	621473.1	-0.00021892655
0	0.6496807	0.6496796	-2.828695e-10	0.0666094	0.0666094	0	80495.445	80495.31	-2.6875e-05	621555.2	287996.94	-0.00011299435	287997.8	621554.6	-0.0002683616
0	0.64958185	0.6495808	-2.9633948e-10	0.06646816	0.066468164	0	80483.19	80483.06	-4e-05	621636.7	287776.97	-0.00030014126	287777.84	621636.1	-0.00018361582
0	0.6494834	0.64948237	-1.6163972e-10	0.06632643	0.06632643	0	80470.99	80470.87	-2.5e-05	621718.4	287557.6	-0.00018361582	287558.44	621717.75	-7.768362e-05
0	0.6493847	0.6493836	-1.0775981e-10	0.06618507	0.06618507	0	80458.76	80458.63	-8.75e-06	621799.56	287338.1	-0.00012711865	287338.94	621799	-4.237288e-05
0	0.649285	0.649284	4.040993e-11	0.06604384	0.06604385	0	80446.42	80446.29	1.25e-06	621881.2	287116.97	-4.237288e-05	287117.84	621880.6	5.6497174e-05
0	0.649186	0.6491849	-3.5021938e-10	0.065902434	0.065902434	0	80434.14	80434.016	-4.5e-05	621962.1	286897.34	-0.00028248588	286898.22	621961.5	-0.00026129943
0	0.64908594	0.6490849	4.040993e-11	0.06576085	0.06576085	0	80421.76	80421.64	7.5e-06	622043.56	286675.9	-2.8248587e-05	286676.8	622043	4.237288e-05
0	0.64898586	0.6489848	-3.906293e-10	0.06561948	0.065619476	0	80409.35	80409.22	-4.8125e-05	622125.06	286454.25	-0.0003036723	286455.2	622124.44	-0.0003036723
0	0.6488859	0.64888483	-2.6939953e-10	0.06547825	0.06547825	0	80396.96	80396.83	-3.5e-05	622206.75	286232.56	-0.0002683616	286233.47	622206.25	-0.0002118644
0	0.6487845	0.64878345	-3.2327943e-10	0.065336525	0.065336525	0	80384.41	80384.27	-5.25e-05	622289.06	286008.38	-0.00036723164	286009.3	622288.44	-0.00016949153
0	0.6486849	0.6486838	-2.5592956e-10	0.06519514	0.06519514	0	80372.055	80371.93	-2.875e-05	622370.25	285787.7	-0.00023305084	285788.56	622369.7	-7.768362e-05
0	0.6485832	0.6485821	-3.0980946e-10	0.06505392	0.065053925	0	80359.45	80359.33	-3.25e-05	622452.44	285563.1	-0.00017302259	285563.97	622451.9	-0.00024011299
0	0.6484829	0.6484818	-9.428983e-11	0.06491251	0.06491251	0	80347.03	80346.9	-1.75e-05	622534.3	285340.75	-9.8870056e-05	285341.7	622533.8	0
0	0.6483816	0.6483805	1.3469976e-11	0.06477093	0.06477093	0	80334.48	80334.34	-6.25e-06	622615.8	285117.47	-2.8248587e-05	285118.4	622615.25	3.5310734e-06
0	0.64827985	0.6482787	-1.2122979e-10	0.06462956	0.06462956	0	80321.87	80321.73	-1.25e-05	622697.75	284893.1	-0.00015536723	284893.97	622697.2	-2.8248587e-05
0	0.64817804	0.64817697	-1.8857967e-10	0.06448818	0.06448818	0	80309.26	80309.125	-2.9375e-05	622779.7	284668.66	-0.00016949153	284669.53	622779.1	-0.00023305084
0	0.64807487	0.6480739	-3.1654443e-10	0.0643466	0.0643466	0	80296.484	80296.35	-3.875e-05	622862.5	284441.44	-0.00020480226	284442.34	622861.94	-0.0002542373
0	0.6479737	0.6479725	-2.828695e-10	0.06420524	0.06420524	0	80283.94	80283.805	-2.25e-05	622944	284218.16	-0.00020480226	284219.06	622943.4	-0.00014124294
0	0.6478713	0.64787024	-8.081986e-11	0.064063966	0.064063966	0	80271.266	80271.125	-1.5e-05	623025.8	283993.16	-9.8870056e-05	283994.06	623025.25	-0.00016949153
0	0.6477685	0.6477673	-1.8857967e-10	0.063922584	0.06392258	0	80258.5	80258.37	-1.625e-05	623108.1	283766.72	-0.00014124294	283767.62	623107.5	-0.00016596045
0	0.6476654	0.64766437	-2.9633948e-10	0.063781016	0.063781016	0	80245.75	80245.61	-3e-05	623190.56	283540.03	-0.00021892655	283540.97	623190	-0.00017655367
0	0.64756113	0.6475601	-2.6939953e-10	0.06363963	0.06363963	0	80232.83	80232.69	-3.5e-05	623273.5	283311.2	-0.00012711865	283312.06	623272.9	-0.0002683616
0	0.6474591	0.64745796	-2.0204964e-10	0.06349825	0.06349824	0	80220.18	80220.055	-2.1875e-05	623355.25	283086.56	-0.000120056495	283087.53	623354.6	-0.00017655367
0	0.64735454	0.6473535	-1.6163972e-10	0.06335668	0.06335668	0	80207.23	80207.1	-3e-05	623437.56	282857.9	-0.00018361582	282858.8	623436.9	-7.944915e-05
0	0.6472502	0.6472491	-3.8389433e-10	0.06321527	0.06321527	0	80194.3	80194.16	-4.75e-05	623520.5	282628.88	-0.00035310735	282629.75	623519.9	-0.00024011299
0	0.64714694	0.64714587	-3.0980946e-10	0.06307404	0.06307404	0	80181.51	80181.37	-4.375e-05	623602.56	282402.3	-0.00029661017	282403.22	623602	-0.00024011299
0	0.64704216	0.64704114	-1.4143475e-10	0.062932655	0.062932655	0	80168.52	80168.39	-2e-05	623684.94	282173.16	-0.00012711865	282174.06	623684.44	-0.00011299435
0	0.646937	0.64693594	-1.2122979e-10	0.062790945	0.062790945	0	80155.51	80155.37	-2.125e-05	623767.94	281943	-0.00012711865	281943.94	623767.3	-0.00014830509
0	0.6468326	0.64683145	-2.2898959e-10	0.062649705	0.062649705	0	80142.555	80142.414	-3.0625e-05	623850.6	281714.12	-0.0001059322	281715	623849.94	-0.00024011299
0	0.64672834	0.64672726	-1.4816974e-10	0.06250833	0.06250833	0	80129.64	80129.51	-2.5e-05	623932.5	281486.28	-0.00016949153	281487.2	623931.9	-0.00010240113
0	0.64662224	0.6466212	-4.1756926e-10	0.06236674	0.06236674	0	80116.5	80116.36	-5.1875e-05	624015.7	281254.47	-0.00031073447	281255.4	624015.1	-0.0002118644
0	0.6465157	0.6465146	-1.8857967e-10	0.062225346	0.062225346	0	80103.3	80103.164	-1.8125e-05	624098.9	281022.16	-0.0002118644	281023.1	624098.25	-0.000120056495
0	0.6464106	0.6464095	-2.6266453e-10	0.06208412	0.06208412	0	80090.27	80090.13	-4e-05	624181.5	280792.34	-0.00017655367	280793.28	624181	-0.00021892655
0	0.64630437	0.6463033	-3.2327943e-10	0.061942417	0.061942413	0	80077.11	80076.97	-3.9375e-05	624264.6	280560.5	-0.0002542373	280561.4	624264.06	-0.00014124294
0	0.6461983	0.64619714	-3.0980946e-10	0.061801024	0.06180102	0	80063.96	80063.83	-3.375e-05	624347.25	280329.38	-0.00016949153	280330.3	624346.7	-0.00023658192
0	0.64609057	0.6460894	-3.7715933e-10	0.06165979	0.06165979	0	80050.62	80050.48	-4.25e-05	624430.75	280095.1	-0.00031073447	280096	624430.1	-0.00019067797
0	0.6459847	0.64598364	-2.2898959e-10	0.061518367	0.061518367	0	80037.51	80037.375	-2.6875e-05	624513.3	279864.5	-0.00011299435	279865.4	624512.6	-0.00015536723
0	0.6458767	0.6458757	-1.7510969e-10	0.06137681	0.061376818	0	80024.13	80023.99	-2.125e-05	624596.56	279630	-0.000144774	279630.97	624595.94	-0.0001341808
0	0.64577013	0.64576906	-1.0775981e-10	0.061235435	0.061235435	0	80010.92	80010.78	-1e-05	624679.7	279397.62	-5.29661e-05	279398.6	624679.06	-9.8870056e-05
0	0.6456625	0.6456614	-3.2327943e-10	0.061094042	0.061094042	0	79997.586	79997.44	-3.1875e-05	624762.6	279163.9	-0.00032485876	279164.84	624761.94	-0.00012358757
0	0.64555436	0.6455533	-2.2898959e-10	0.060952503	0.0609525	0	79984.2	79984.055	-3.25e-05	624845.5	278929.72	-0.00020127119	278930.72	624844.9	-0.0001341808
0	0.6454464	0.6454452	-2.5592956e-10	0.060811102	0.060811102	0	79970.805	79970.664	-3.25e-05	624929.06	278694.97	-0.0002118644	278695.9	624928.4	-0.00019067797
0	0.64533675	0.6453357	-1.7510969e-10	0.06066984	0.06066984	0	79957.22	79957.086	-3e-05	625013.7	278456.84	-0.00014124294	278457.78	625013	-0.00015536723
0	0.6452297	0.6452285	-3.0980946e-10	0.060528446	0.060528446	0	79943.945	79943.81	-3.625e-05	625096	278224.56	-0.00024717514	278225.53	625095.4	-0.0002118644
0	0.6451199	0.6451187	-1.6163972e-10	0.060386896	0.060386896	0	79930.36	79930.21	-2.25e-05	625179.4	277987.56	-9.533898e-05	277988.53	625178.75	-0.00016949153
0	0.64501137	0.64501023	-4.445092e-10	0.060245506	0.060245506	0	79916.91	79916.766	-4.9375e-05	625262.94	277752.03	-0.0004519774	277753	625262.25	-0.00019774011
0	0.6449022	0.6449009	-2.2898959e-10	0.060104124	0.060104124	0	79903.38	79903.234	-3e-05	625346.2	277515.84	-0.00029661017	277516.78	625345.56	-7.062147e-05
0	0.64479166	0.6447905	-2.828695e-10	0.05996258	0.05996258	0	79889.67	79889.54	-4e-05	625429.75	277277.6	-0.00021892655	277278.53	625429.1	-0.00029661017
0	0.6446816	0.64468044	-5.9267896e-10	0.059821147	0.059821147	0	79876.05	79875.9	-6.75e-05	625513.7	277039.56	-0.0004237288	277040.5	625513.06	-0.00046963277
0	0.64457273	0.64457166	-3.6368936e-10	0.059679918	0.05967991	0	79862.56	79862.414	-4.25e-05	625596.8	276803.97	-0.0003036723	276804.94	625596.2	-0.00017655367
0	0.6444612	0.64446	-8.081986e-11	0.05953851	0.05953851	0	79848.74	79848.6	-1.375e-05	625680.44	276564.28	-2.8248587e-05	276565.25	625679.8	-0.00012711865
0	0.6443506	0.6443495	-3.5021938e-10	0.059396826	0.059396826	0	79835.05	79834.9	-4.25e-05	625764.3	276325.66	-0.00029661017	276326.62	625763.6	-0.0002118644
0	0.64423996	0.6442388	-2.9633948e-10	0.059255596	0.059255596	0	79821.336	79821.19	-4.1875e-05	625847.75	276087.25	-0.00031073447	276088.2	625847.2	-0.00016949153
0	0.64412904	0.6441278	-2.4245958e-10	0.059114188	0.059114188	0	79807.58	79807.44	-3.25e-05	625932	275847.6	-0.0002683616	275848.6	625931.4	-9.8870056e-05
0	0.6440181	0.6440169	-5.65739e-10	0.058972627	0.058972627	0	79793.836	79793.69	-7.375e-05	626015.6	275608.62	-0.00039548022	275609.6	626015	-0.00044491526
0	0.6439049	0.6439038	-2.828695e-10	0.058831234	0.058831234	0	79779.82	79779.68	-2.9375e-05	626100.06	275365.9	-0.00027542372	275366.84	626099.4	-9.180791e-05
0	0.643794	0.643793	-2.9633948e-10	0.058689985	0.058689985	0	79766.086	79765.94	-5e-05	626183.7	275127.06	-0.00038135593	275128	626183	-0.00018361582
0	0.6436818	0.64368063	-3.300144e-10	0.0585483	0.0585483	0	79752.18	79752.03	-3.875e-05	626267.44	274886.2	-0.00024011299	274887.16	626266.8	-0.00015536723
0	0.64356875	0.64356756	-3.7715933e-10	0.058406904	0.058406904	0	79738.164	79738.02	-3.8125e-05	626351.8	274643.44	-0.00029661017	274644.44	626351.1	-0.00015536723
0	0.64345616	0.64345497	-3.0980946e-10	0.058265664	0.058265664	0	79724.22	79724.08	-3.75e-05	626436.3	274401.38	-0.0002118644	274402.38	626435.7	-0.00017655367
0	0.64334357	0.64334226	-3.5021938e-10	0.05812423	0.05812423	0	79710.26	79710.12	-4.8125e-05	626520.06	274159.88	-0.0003990113	274160.9	626519.44	-0.00019774011
0	0.643229	0.64322776	-2.828695e-10	0.057982713	0.057982713	0	79696.07	79695.92	-3.5625e-05	626604.8	273914.75	-0.00028248588	273915.75	626604.1	-0.00014830509
0	0.6431165	0.6431153	-5.52269e-10	0.05784131	0.05784131	0	79682.13	79681.984	-6e-05	626688.94	273673.1	-0.00031073447	273674.1	626688.3	-0.00036016948
0	0.64300305	0.64300185	-2.0204964e-10	0.057699904	0.057699904	0	79668.07	79667.93	-4.0625e-05	626772.75	273430.44	-0.0002683616	273431.44	626772.1	-0.00020480226
0	0.6428881	0.64288706	-6.061489e-10	0.057558388	0.057558388	0	79653.85	79653.7	-6.625e-05	626857.5	273185.03	-0.00051200564	273186.03	626856.9	-0.00031426555
0	0.6427745	0.6427734	-2.5592956e-10	0.057416987	0.057416987	0	79639.77	79639.625	-3e-05	626941.4	272942.03	-0.00021892655	272943.03	626940.7	-0.00021892655
0	0.64265925	0.642658	-1.6163972e-10	0.05727571	0.05727571	0	79625.47	79625.32	-2.25e-05	627025.56	272696.3	-0.000120056495	272697.34	627024.94	-0.0001341808
0	0.6425444	0.6425432	-1.683747e-10	0.0571343	0.0571343	0	79611.25	79611.1	-1.75e-05	627110.1	272450.97	-0.00011652542	272451.94	627109.5	-7.768362e-05
0	0.6424288	0.64242774	-1.0775981e-10	0.05699279	0.05699279	0	79596.93	79596.79	-2e-05	627194.94	272204.53	-0.00016242938	272205.56	627194.25	-7.768362e-05
0	0.6423144	0.6423131	-1.4816974e-10	0.056851387	0.056851387	0	79582.76	79582.61	-5.625e-06	627279.44	271959.7	-0.00018361582	271960.7	627278.8	-2.118644e-05
0	0.6421976	0.6421964	-2.4245958e-10	0.056709986	0.05670998	0	79568.29	79568.13	-3.375e-05	627364.25	271711.47	-0.00026129943	271712.47	627363.56	-6.70904e-05
0	0.6420826	0.6420813	-2.5592956e-10	0.05656847	0.05656847	0	79554.03	79553.875	-3.5e-05	627448.8	271465.7	-0.00013771186	271466.7	627448.2	-0.00018361582
0	0.64196604	0.64196485	-3.906293e-10	0.05642703	0.05642703	0	79539.59	79539.44	-5e-05	627533.44	271217.9	-0.0002542373	271218.97	627532.9	-0.0003319209
0	0.6418495	0.6418484	-2.6939953e-10	0.056285787	0.056285787	0	79525.16	79525.01	-4.25e-05	627617.7	270970.62	-0.00034251413	270971.66	627617	-0.000120056495
0	0.6417321	0.6417308	-8.081986e-11	0.05614437	0.056144364	0	79510.6	79510.445	-1.25e-05	627703.06	270720.72	-7.4152544e-05	270721.75	627702.44	-7.768362e-05
0	0.6416158	0.6416146	-4.040993e-11	0.056002706	0.056002706	0	79496.2	79496.05	-6.875e-06	627787.3	270473.8	-0.00014124294	270474.8	627786.6	1.4124294e-05
0	0.641497	0.6414958	-1.8857967e-10	0.05586147	0.055861466	0	79481.48	79481.336	-2.8125e-05	627873.56	270221.28	-0.00024717514	270222.28	627872.94	-0.00016242938
0	0.64138085	0.6413796	-1.8857967e-10	0.055720054	0.055720054	0	79467.09	79466.93	-2.75e-05	627957.6	269974.47	-9.8870056e-05	269975.53	627956.94	-0.00014830509
0	0.641263	0.6412618	-3.0980946e-10	0.05557856	0.05557856	0	79452.484	79452.336	-4.4375e-05	628042.2	269725.1	-0.00018361582	269726.12	628041.44	-0.00024011299
0	0.6411446	0.6411434	-1.8857967e-10	0.0554371	0.055437103	0	79437.81	79437.664	-2.1875e-05	628127	269474.44	-0.0001059322	269475.5	628126.25	-0.000120056495
0	0.64102626	0.641025	-3.5021938e-10	0.05529586	0.05529586	0	79423.15	79423	-4.5e-05	628211.94	269223.84	-0.00020480226	269224.84	628211.2	-0.0003319209
0	0.6409071	0.64090586	-2.6939953e-10	0.055154454	0.055154454	0	79408.38	79408.234	-3.25e-05	628297.2	268971.75	-0.00016949153	268972.75	628296.5	-0.00017655367
0	0.6407882	0.640787	-2.5592956e-10	0.05501279	0.05501279	0	79393.66	79393.51	-3.375e-05	628382.25	268720.2	-0.00019067797	268721.22	628381.56	-0.00020127119
0	0.6406696	0.6406684	-2.1551962e-10	0.054871544	0.054871544	0	79378.96	79378.81	-2.75e-05	628466.9	268469.47	-0.0002542373	268470.53	628466.25	-7.062147e-05
0	0.6405498	0.6405486	-4.7144916e-10	0.05473013	0.05473012	0	79364.125	79363.96	-5.6875e-05	628552.6	268216	-0.00033898305	268217.03	628552	-0.00034604518
0	0.64042956	0.64042836	-1.8184468e-10	0.054588605	0.054588605	0	79349.23	79349.07	-2.125e-05	628637.75	267962.7	-0.0001871469	267963.72	628636.94	-5.6497174e-05
0	0.6403092	0.64030796	-4.7144916e-10	0.05444719	0.05444718	0	79334.305	79334.16	-5e-05	628723.3	267708.5	-0.0002789548	267709.53	628722.75	-0.0003884181
0	0.6401888	0.64018756	-2.5592956e-10	0.05430595	0.05430595	0	79319.39	79319.24	-3.75e-05	628809	267454.38	-0.00018361582	267455.38	628808.3	-0.0002259887
0	0.6400683	0.6400671	-3.6368936e-10	0.054164287	0.054164287	0	79304.47	79304.31	-4.25e-05	628894.4	267200.38	-0.0002930791	267201.4	628893.56	-0.00020480226
0	0.63994724	0.639946	-2.4245958e-10	0.05402286	0.05402286	0	79289.47	79289.31	-3.75e-05	628979.8	266945.34	-0.00024011299	266946.38	628979.06	-0.0002118644
0	0.6398267	0.63982534	-8.081986e-11	0.053881623	0.053881623	0	79274.52	79274.36	-6.25e-06	629064.56	266691.72	-0.00014124294	266692.78	629063.75	-2.118644e-05
0	0.6397047	0.6397035	-1.3469977e-10	0.053740162	0.053740162	0	79259.414	79259.266	-1.6875e-05	629149.9	266435.72	-0.00014830509	266436.75	629149.2	-3.5310734e-06
0	0.6395826	0.63958126	-2.1551962e-10	0.053598687	0.053598687	0	79244.28	79244.125	-2.25e-05	629235.7	266178.8	-0.00017655367	266179.88	629234.94	-0.00011299435
0	0.63946074	0.6394595	-5.3879906e-10	0.053457264	0.053457264	0	79229.195	79229.04	-7e-05	629320.9	265923.12	-0.0004519774	265924.22	629320.1	-0.00032485876
0	0.6393379	0.6393366	-1.2122979e-10	0.053315833	0.05331584	0	79213.97	79213.81	-1.6875e-05	629407	265665	-0.00010240113	265666.03	629406.3	-0.00011299435
0	0.63921595	0.6392147	0	0.053174376	0.053174376	0	79198.85	79198.71	1e-05	629492	265409.28	0.00012711865	265410.34	629491.3	-3.5310735e-05
0	0.6390919	0.63909066	-5.9267896e-10	0.053032946	0.053032946	0	79183.49	79183.33	-7.25e-05	629578.3	265149.28	-0.00048022598	265150.4	629577.56	-0.00034604518
0	0.63896924	0.638968	-2.1551962e-10	0.05289166	0.052891657	0	79168.29	79168.13	-2.375e-05	629663.6	264892.25	-0.00033545197	264893.34	629663	0
0	0.6388452	0.6388439	-3.5021938e-10	0.052750226	0.052750226	0	79152.914	79152.766	-3.75e-05	629749.7	264632.6	-0.00027542372	264633.72	629748.94	-0.00014124294
0	0.6387212	0.63871986	-4.445092e-10	0.052608766	0.052608766	0	79137.555	79137.39	-4.5e-05	629835.94	264372.62	-0.00032485876	264373.7	629835.2	-0.00018361582
0	0.63859737	0.63859606	-3.5021938e-10	0.052467342	0.052467342	0	79122.21	79122.055	-4.3125e-05	629921.5	264113.72	-0.0003036723	264114.78	629920.8	-0.00022245763
0	0.63847274	0.6384714	-3.367494e-10	0.052325908	0.052325908	0	79106.77	79106.61	-4e-05	630007.3	263853.4	-9.180791e-05	263854.5	630006.7	-0.00039548022
0	0.6383486	0.6383473	-3.973643e-10	0.05218446	0.05218446	0	79091.39	79091.23	-5.25e-05	630092.6	263594.38	-0.00031073447	263595.47	630091.9	-0.00033898305
0	0.6382229	0.63822156	-4.6471418e-10	0.052042987	0.052042987	0	79075.82	79075.664	-5.75e-05	630178.94	263332.03	-0.00044491526	263333.12	630178.25	-0.00023658192
0	0.6380973	0.638096	-2.5592956e-10	0.051901728	0.051901728	0	79060.266	79060.1	-4e-05	630265.06	263070.16	-0.00029661017	263071.28	630264.3	-0.00015536723
0	0.6379715	0.6379702	-3.2327943e-10	0.051760294	0.051760294	0	79044.67	79044.51	-3.5e-05	630351.7	262807.44	-0.0002118644	262808.53	630350.9	-0.0002259887
0	0.6378456	0.63784426	-1.9531465e-10	0.051618665	0.051618665	0	79029.06	79028.9	-2.3125e-05	630437.4	262545.28	-0.00016949153	262546.38	630436.6	-0.00013771186
0	0.6377195	0.6377182	-3.6368936e-10	0.05147742	0.05147742	0	79013.445	79013.29	-4e-05	630523.4	262282.84	-0.00031073447	262283.94	630522.6	-0.00020480226
0	0.63759255	0.6375912	-1.3469977e-10	0.051335983	0.051335983	0	78997.71	78997.55	-1.25e-05	630609.94	262018.44	-0.00024011299	262019.56	630609.25	3.5310735e-05
0	0.6374663	0.6374649	-2.6266453e-10	0.051194496	0.051194496	0	78982.07	78981.91	-3.6875e-05	630695.5	261756.16	-0.00026129943	261757.25	630694.75	-0.00020480226
0	0.63733876	0.63733745	-3.6368936e-10	0.051053066	0.051053066	0	78966.27	78966.12	-4.75e-05	630781.94	261491.25	-0.00040607344	261492.38	630781.25	-0.00018361582
0	0.6372117	0.63721037	-4.0409928e-10	0.050911807	0.050911807	0	78950.52	78950.37	-6.375e-05	630867.75	261227.48	-0.00032132768	261228.6	630867	-0.0003036723
0	0.6370833	0.637082	-3.906293e-10	0.050770186	0.050770186	0	78934.62	78934.45	-4.625e-05	630954.44	260961.05	-0.00021539548	260962.14	630953.75	-0.0003319209
0	0.63695556	0.6369543	-4.3103923e-10	0.050628755	0.050628755	0	78918.8	78918.64	-5.25e-05	631040.8	260695.9	-0.00024011299	260697	631040.06	-0.0003884181
0	0.63682747	0.6368261	-3.7715933e-10	0.050487496	0.050487496	0	78902.914	78902.75	-4e-05	631126.75	260430.53	-0.0002259887	260431.66	631126	-0.0002683616
0	0.6366983	0.636697	-5.118591e-10	0.050346017	0.050346017	0	78886.914	78886.75	-6.3125e-05	631213.1	260163.38	-0.00032485876	260164.5	631212.4	-0.00039548022
0	0.6365695	0.6365682	1.7510969e-10	0.050204586	0.05020459	0	78870.96	78870.79	2.75e-05	631299.56	259896.58	0.00013064971	259897.67	631298.8	0.00011299435
0	0.63643986	0.63643855	-2.761345e-10	0.05006314	0.05006314	0	78854.9	78854.734	-3e-05	631386	259628.64	-0.00019774011	259629.7	631385.3	-0.00016596045
0	0.6363106	0.6363092	-1.8857967e-10	0.049921695	0.049921695	0	78838.875	78838.71	-1.75e-05	631472.6	259361.1	-0.00016949153	259362.19	631471.9	-2.118644e-05
0	0.6361805	0.63617927	-1.2796478e-10	0.04978028	0.049780272	0	78822.77	78822.61	-1.125e-05	631559.4	259092.28	-0.00016596045	259093.4	631558.6	-5.6497174e-05
0	0.6360502	0.63604885	-2.5592956e-10	0.049638826	0.049638826	0	78806.62	78806.45	-3.8125e-05	631645.75	258823.4	-0.0002259887	258824.5	631645	-0.00024011299
0	0.6359195	0.6359182	-5.3879906e-10	0.04949753	0.04949753	0	78790.43	78790.266	-6.8125e-05	631732.6	258553.48	-0.00043079097	258554.62	631731.9	-0.00039548022
0	0.63578874	0.63578737	-3.906293e-10	0.049356084	0.049356084	0	78774.23	78774.055	-4.5e-05	631819.2	258283.95	-0.00039548022	258285.08	631818.5	-0.0002118644
0	0.63565767	0.63565636	-2.222546e-10	0.049214657	0.049214657	0	78757.984	78757.81	-3e-05	631905.75	258013.84	-0.00028248588	258014.97	631905	-7.062147e-05
0	0.635526	0.6355246	-3.2327943e-10	0.049073208	0.04907321	0	78741.664	78741.51	-3.5e-05	631992.4	257742.88	-0.00019774011	257744.02	631991.6	-0.00021892655
0	0.6353935	0.6353922	-2.6939953e-10	0.048931766	0.048931766	0	78725.26	78725.086	-4e-05	632080	257469.73	-0.0002118644	257470.86	632079.3	-0.00024011299
0	0.6352621	0.63526076	-2.4245958e-10	0.04879036	0.04879036	0	78708.97	78708.805	-3.25e-05	632165.94	257199.84	-0.0002542373	257200.97	632165.2	-7.768362e-05
0	0.63512945	0.63512814	-2.5592956e-10	0.048648857	0.048648857	0	78692.54	78692.375	-2.4375e-05	632252.75	256927.33	-0.00018008474	256928.48	632252	-0.00013771186
0	0.63499695	0.6349957	-3.6368936e-10	0.04850761	0.04850761	0	78676.125	78675.96	-4e-05	632339.6	256655.05	-0.000289548	256656.17	632338.8	-0.00019774011
0	0.6348639	0.63486254	6.734988e-11	0.048366148	0.048366148	0	78659.64	78659.47	7.5e-06	632426.44	256381.83	0	256382.98	632425.75	7.768362e-05
0	0.63472974	0.6347283	-9.428983e-11	0.04822455	0.04822455	0	78643.01	78642.84	-1.4375e-05	632513.8	256106.6	-0.00019774011	256107.72	632513.1	5.29661e-05
0	0.6345967	0.63459533	-1.2122979e-10	0.048083294	0.048083294	0	78626.54	78626.37	-1.75e-05	632600.56	255833.73	-0.00016949153	255834.89	632599.75	-4.237288e-05
0	0.6344622	0.6344608	-2.9633948e-10	0.04794183	0.04794183	0	78609.86	78609.69	-4.0625e-05	632687.94	255557.86	-0.00019774011	255559.05	632687.1	-0.00019067797
0	0.63432807	0.6343267	-3.906293e-10	0.047800392	0.047800396	0	78593.25	78593.08	-4.6875e-05	632774.9	255283.23	-0.0003884181	255284.42	632774.2	-0.00020127119
0	0.6341935	0.6341921	-4.8491916e-10	0.047658946	0.047658946	0	78576.57	78576.4	-6.5e-05	632861.8	255007.9	-0.0003742938	255009.06	632861	-0.00038135593
0	0.63405824	0.6340569	-4.3103923e-10	0.047517676	0.047517676	0	78559.82	78559.65	-5.25e-05	632948.9	254731.58	-0.00035310735	254732.75	632948.06	-0.00033898305
0	0.63392234	0.6339209	-2.6939953e-10	0.04737622	0.047376227	0	78542.97	78542.805	-3.375e-05	633036.7	254453.36	-0.00018361582	254454.55	633035.9	-0.00018361582
0	0.6337874	0.6337861	-3.5021938e-10	0.047234632	0.047234632	0	78526.266	78526.086	-4.75e-05	633123.25	254177.92	-0.00030014126	254179.11	633122.5	-0.00028248588
0	0.63365144	0.63365	-2.2898959e-10	0.047093365	0.047093365	0	78509.42	78509.24	-2e-05	633210.06	253900.77	-0.00018361582	253901.95	633209.4	-0.0001059322
0	0.63351506	0.6335136	-2.5592956e-10	0.046951856	0.046951856	0	78492.51	78492.34	-2.5e-05	633297.5	253622.4	-0.00018008474	253623.6	633296.7	-9.8870056e-05
0	0.6333782	0.63337684	-1.2122979e-10	0.04681048	0.04681048	0	78475.555	78475.39	-2e-05	633384.9	253343.42	-0.00020833334	253344.58	633384.1	-7.062147e-05
0	0.6332415	0.63324016	-4.3103923e-10	0.046669014	0.046669014	0	78458.62	78458.445	-5.75e-05	633472	253064.84	-0.00040960452	253066.06	633471.25	-0.00027542372
0	0.6331041	0.6331027	-6.734988e-10	0.046527762	0.046527762	0	78441.59	78441.43	-6.9375e-05	633559.2	252785.39	-0.0005084746	252786.58	633558.4	-0.00037782485
0	0.63296586	0.63296455	-3.5021938e-10	0.04638618	0.04638618	0	78424.48	78424.31	-4.75e-05	633647.25	252503.84	-0.00021892655	252505.06	633646.44	-0.0002683616
0	0.6328281	0.63282675	-3.0980946e-10	0.04624471	0.046244707	0	78407.41	78407.22	-3.5e-05	633734.4	252223.72	-0.00036723164	252224.9	633733.6	-8.474576e-05
0	0.6326899	0.63268846	-2.222546e-10	0.04610345	0.04610345	0	78390.29	78390.11	-2.875e-05	633821.75	251942.97	-0.00018361582	251944.16	633821	-8.474576e-05
0	0.6325512	0.6325498	-3.6368936e-10	0.045961928	0.045961928	0	78373.09	78372.914	-4e-05	633909.25	251661.25	-0.00022951978	251662.44	633908.44	-0.00028248588
0	0.6324118	0.63241047	-8.081986e-11	0.04582056	0.04582056	0	78355.83	78355.65	-1.25e-05	633997.06	251378.27	-0.00016949153	251379.5	633996.4	-4.237288e-05
0	0.632273	0.6322716	-1.7510969e-10	0.0456791	0.045679096	0	78338.64	78338.46	-2.0625e-05	634084.06	251097.06	-0.0001059322	251098.28	634083.2	-0.00013064971
0	0.6321329	0.6321314	-2.0204964e-10	0.04553762	0.04553762	0	78321.266	78321.08	-2.25e-05	634172.06	250812.75	-9.8870056e-05	250813.94	634171.25	-0.00011299435
0	0.63199276	0.6319913	-3.906293e-10	0.04539626	0.045396265	0	78303.9	78303.73	-5.0625e-05	634259.9	250528.8	-0.00018361582	250530.05	634259	-0.00038135593
0	0.63185287	0.6318515	-5.7920896e-10	0.04525479	0.04525479	0	78286.58	78286.4	-6.6875e-05	634346.8	250246.08	-0.00042019773	250247.3	634346	-0.00038135593
0	0.631712	0.6317106	-5.118591e-10	0.04511347	0.04511347	0	78269.12	78268.93	-6.25e-05	634434.6	249960.95	-0.0003990113	249962.16	634433.8	-0.00036723164
0	0.63157076	0.63156945	-5.118591e-10	0.04497199	0.04497199	0	78251.625	78251.445	-6.125e-05	634522.5	249675.4	-0.0002683616	249676.62	634521.7	-0.00036723164
0	0.6314296	0.6314282	-1.3469976e-11	0.04483065	0.04483065	0	78234.13	78233.96	0	634609.94	249390.42	-1.7655368e-05	249391.61	634609	-1.4124294e-05
0	0.6312875	0.6312861	-3.906293e-10	0.044689175	0.044689175	0	78216.52	78216.35	-5.5e-05	634698.1	249103.22	-0.0003884181	249104.4	634697.4	-0.00019774011
0	0.6311453	0.63114387	-2.2898959e-10	0.044547684	0.044547684	0	78198.91	78198.73	-2e-05	634786.25	248815.95	-0.00011299435	248817.19	634785.44	-0.00020127119
0	0.63100296	0.6310015	-5.2532906e-10	0.04440635	0.04440635	0	78181.266	78181.086	-6.1875e-05	634873.6	248529.31	-0.00026129943	248530.53	634872.75	-0.00045903955
0	0.6308602	0.6308587	-4.8491916e-10	0.044264823	0.044264823	0	78163.58	78163.4	-5.25e-05	634961.7	248241.31	-0.00025776835	248242.56	634960.9	-0.0003177966
0	0.6307165	0.6307151	-9.428983e-11	0.04412355	0.044123545	0	78145.77	78145.59	-1e-05	635048.44	247953.5	-0.00032485876	247954.77	635047.6	0.00017655367