# t (s)	mx ()	my ()	mz ()	B_extx (T)	B_exty (T)	B_extz (T)	m_fullx (A/m)	m_fully (A/m)	m_fullz (A/m)	m_full.region1x (A/m)	m_full.region1y (A/m)	m_full.region1z (A/m)	m_full.region2x (A/m)	m_full.region2y (A/m)	m_full.region2z (A/m)
0	0.6574272	0.65742433	-9.574261e-10	0.07071067	0.07071067	0	158158.2	158157.48	-0.00022951212	617814.7	302581.06	-0.0007515588	302583.44	617812.9	-0.00061609264
0	0.65734893	0.6573485	-2.9377586e-10	0.07056918	0.07056918	0	158139.38	158139.25	-7.270408e-05	617884.5	302403.78	-0.00018928148	302403.97	617884.06	-0.0002449525
0	0.65726775	0.6572676	-4.778282e-10	0.070427895	0.07042789	0	158119.83	158119.8	-0.00011830357	617960.8	302214.03	-0.00037856295	302213.94	617960.6	-0.00033031474
0	0.6571851	0.65718496	-2.0705888e-10	0.070286386	0.070286386	0	158099.95	158099.92	-4.815051e-05	618037.9	302021.34	-9.092934e-05	302021.25	618037.6	-0.00018557007
0	0.6571042	0.6571041	-2.4068383e-10	0.07014502	0.07014502	0	158080.48	158080.48	-5.835459e-05	618113.8	301832.22	-0.00018557007	301832.16	618113.5	-0.00016330167
0	0.65702164	0.6570216	-2.9731534e-10	0.07000352	0.07000351	0	158060.62	158060.6	-7.3341835e-05	618190.9	301639.56	-0.00030526277	301639.47	618190.6	-0.00012989905
0	0.65693927	0.6569391	-3.1855213e-10	0.069862224	0.06986222	0	158040.8	158040.77	-7.780612e-05	618267.1	301447.78	-0.00015402316	301447.7	618266.94	-0.0002857779
0	0.6568575	0.6568573	-8.140777e-11	0.069720745	0.069720745	0	158021.16	158021.11	-2.1045918e-05	618343.7	301256.94	-0.000111342044	301256.78	618343.4	-1.1134204e-05
0	0.6567747	0.6567746	-4.247362e-11	0.06957926	0.06957926	0	158001.23	158001.19	-1.6422195e-05	618420.6	301064.1	-5.103177e-05	301063.97	618420.44	-1.1134204e-05
0	0.6566916	0.65669143	-2.0882862e-10	0.06943794	0.06943794	0	157981.22	157981.19	-4.6875e-05	618497.7	300870.56	-0.000111342044	300870.47	618497.44	-0.00017443587
0	0.6566085	0.6566085	-3.6633496e-10	0.0692964	0.0692964	0	157961.23	157961.22	-9.024235e-05	618574.6	300677.4	-0.00023752969	300677.34	618574.4	-0.0002597981
0	0.6565256	0.65652543	-4.1411777e-10	0.0691551	0.0691551	0	157941.3	157941.27	-0.00010044643	618651.56	300484.4	-0.00034516034	300484.3	618651.25	-0.0002412411
0	0.6564421	0.65644205	-5.8224253e-10	0.0690136	0.069013596	0	157921.23	157921.2	-0.00013871174	618728.44	300290.66	-0.000489905	300290.56	618728.25	-0.00038969715
0	0.6563588	0.6563586	-1.9290101e-10	0.068872124	0.068872124	0	157901.17	157901.14	-4.93463e-05	618805.4	300097.06	-0.00015123961	300096.94	618805	-0.00015216746
0	0.6562747	0.6562746	-2.743088e-10	0.06873082	0.06873082	0	157880.94	157880.92	-6.919643e-05	618882.5	299902.2	-0.00021897268	299902.1	618882.25	-0.00015587886
0	0.65619016	0.65619004	-4.9552557e-10	0.06858932	0.06858932	0	157860.61	157860.56	-0.000117346935	618960.2	299706.12	-0.00020041567	299706	618959.94	-0.00044536818
0	0.65610665	0.6561064	-3.999599e-10	0.068447955	0.068447955	0	157840.5	157840.47	-9.8533164e-05	619037.3	299511.97	-0.00020412708	299511.88	619037.06	-0.00037856295
0	0.6560228	0.65602267	-6.548016e-11	0.06830648	0.06830648	0	157820.33	157820.3	-1.4668367e-05	619113.7	299318.28	9.2785035e-07	299318.2	619113.4	-0.00012247625
0	0.6559371	0.65593696	-1.7697341e-10	0.06816515	0.06816515	0	157799.73	157799.7	-4.1294643e-05	619192.06	299119.97	-5.5207096e-05	299119.84	619191.8	-0.00018185868
0	0.65585315	0.65585303	-5.096834e-10	0.068023674	0.068023674	0	157779.55	157779.5	-0.00012093431	619269.1	298925.47	-0.00027557157	298925.34	619268.9	-0.0004639252
0	0.6557677	0.6557676	-1.451182e-10	0.067882195	0.06788219	0	157758.98	157758.95	-3.507653e-05	619347.06	298727.88	-2.783551e-06	298727.78	619346.8	-0.00017814727
0	0.65568316	0.655683	-2.9731534e-10	0.06774088	0.06774088	0	157738.61	157738.6	-6.911671e-05	619424.4	298532.12	-0.00020969418	298532	619424.1	-0.00020783849
0	0.6555977	0.6555975	-3.2563108e-10	0.067599334	0.067599334	0	157718.05	157718.03	-7.557398e-05	619502	298334.7	-0.00018093082	298334.62	619501.75	-0.00027835512
0	0.65551215	0.655512	-3.1855213e-10	0.06745803	0.06745803	0	157697.48	157697.45	-7.9719386e-05	619579.75	298137.25	-0.00020691063	298137.12	619579.5	-0.0002412411
0	0.65542656	0.6554263	-1.1326298e-10	0.06731653	0.06731653	0	157676.88	157676.84	-3.125e-05	619657.5	297939.72	-6.0310274e-05	297939.62	619657.1	-0.00010391924
0	0.65534014	0.65534	-1.4865767e-10	0.06717506	0.06717506	0	157656.11	157656.08	-3.778699e-05	619734.8	297741.38	-0.00014474466	297741.25	619734.6	-7.0516624e-05
0	0.6552544	0.6552543	-4.8667687e-10	0.06703376	0.06703376	0	157635.48	157635.47	-0.00012053571	619812.56	297543.72	-0.00038227436	297543.62	619812.3	-0.00031918052
0	0.65516907	0.65516895	1.8936155e-10	0.066892266	0.066892266	0	157614.97	157614.92	4.40051e-05	619889.9	297346.94	0.00017350801	297346.84	619889.56	0.00010391924
0	0.65508205	0.655082	-2.2652596e-10	0.066750884	0.066750884	0	157594.03	157593.98	-5.0382652e-05	619968.1	297146.78	-0.00014474466	297146.7	619968	-0.00018185868
0	0.6549956	0.6549955	-2.8846667e-10	0.06660941	0.06660941	0	157573.23	157573.19	-6.919643e-05	620046.1	296947.84	-0.0002393854	296947.75	620045.9	-0.00016330167
0	0.65490854	0.6549084	-2.5130226e-10	0.06646809	0.06646809	0	157552.31	157552.28	-5.8992347e-05	620124.25	296747.94	-5.659887e-05	296747.88	620123.94	-0.0002894893
0	0.6548205	0.65482044	-1.451182e-10	0.06632662	0.06632662	0	157531.11	157531.08	-3.6750636e-05	620202.75	296546.16	-7.237233e-05	296546.03	620202.4	-0.00012989905
0	0.65473396	0.6547338	-4.4420326e-10	0.06618514	0.06618514	0	157510.3	157510.25	-0.00010841837	620280.4	296347.28	-0.00025330315	296347.2	620280.1	-0.00038969715
0	0.65464556	0.65464544	-1.8936155e-10	0.066043824	0.066043824	0	157489.02	157488.98	-4.846939e-05	620359.1	296144.75	-0.00022917904	296144.62	620358.9	-4.0825416e-05
0	0.6545589	0.6545587	-2.4776278e-10	0.06590227	0.06590227	0	157468.19	157468.14	-5.3890308e-05	620437.3	295945.3	-0.00020041567	295945.22	620437	-0.00012618765
0	0.65447134	0.6544711	-2.3537464e-10	0.06576097	0.06576097	0	157447.08	157447.05	-5.054209e-05	620515.2	295744.62	-0.00025515884	295744.53	620515	-7.0516624e-05
0	0.65438294	0.6543828	-3.06164e-10	0.065619476	0.065619476	0	157425.84	157425.8	-7.3979594e-05	620593.9	295542.3	-0.0002064467	295542.2	620593.56	-0.00021526129
0	0.6542955	0.6542953	-3.1855213e-11	0.06547816	0.06547817	0	157404.78	157404.75	-5.1020406e-06	620671.56	295342.06	1.2989905e-05	295341.97	620671.3	-6.309382e-05
0	0.6542066	0.65420645	-5.344597e-10	0.0653367	0.0653367	0	157383.42	157383.38	-0.0001221301	620750.4	295139	-0.00041242948	295138.9	620750.1	-0.00031918052
0	0.65411717	0.6541169	-4.3358486e-10	0.06519521	0.06519521	0	157361.89	157361.86	-0.000101403064	620829.06	294935	-0.00032289192	294934.9	620828.75	-0.0002560867
0	0.65402895	0.65402883	-2.442233e-10	0.0650539	0.0650539	0	157340.69	157340.66	-6.0586735e-05	620907.75	294732.97	-0.00020783849	294732.9	620907.44	-0.00016330167
0	0.6539398	0.65393966	-3.0970346e-10	0.06491236	0.06491235	0	157319.23	157319.2	-7.7646684e-05	620986.44	294529.3	-0.0002653652	294529.2	620986.1	-0.00021154988
0	0.6538506	0.6538505	-3.06164e-10	0.06477103	0.06477103	0	157297.77	157297.75	-7.8284436e-05	621065.1	294325.88	-0.00019763212	294325.78	621064.8	-0.00023752969
0	0.65376097	0.6537608	-1.4157873e-10	0.06462956	0.06462956	0	157276.22	157276.17	-3.236607e-05	621144	294121.53	-8.768186e-05	294121.4	621143.7	-7.0516624e-05
0	0.6536718	0.6536716	1.2742085e-10	0.06448809	0.06448809	0	157254.77	157254.73	3.101084e-05	621222.3	293918.3	9.278504e-06	293918.28	621222	0.00019670428
0	0.6535815	0.6535813	3.6456524e-10	0.06434676	0.06434676	0	157233.05	157233	8.514031e-05	621300.8	293713.4	0.00020551885	293713.38	621300.5	0.00030804632
0	0.653492	0.6534918	-5.433084e-10	0.06420529	0.06420529	0	157211.48	157211.45	-0.00013217474	621379.6	293509.16	-0.0002709323	293509.06	621379.4	-0.000508462
0	0.65340173	0.65340155	-7.4328835e-11	0.06406391	0.06406391	0	157189.78	157189.75	-9.566326e-06	621458.6	293303.8	-3.340261e-05	293303.72	621458.3	-3.7114016e-05
0	0.6533114	0.6533112	-1.6812474e-10	0.06392241	0.06392241	0	157168.03	157167.98	-3.6670917e-05	621537.7	293098.34	-7.283625e-05	293098.22	621537.44	-0.00013732185
0	0.65322083	0.6532207	7.4328835e-11	0.063781105	0.063781105	0	157146.27	157146.23	1.5943877e-05	621616.4	292892.88	3.7114016e-05	292892.78	621616.2	5.5671022e-05
0	0.6531293	0.653129	-1.3626952e-10	0.06363964	0.06363964	0	157124.23	157124.2	-3.8265305e-05	621695.7	292685.3	-7.793943e-05	292685.22	621695.44	-0.000115053444
0	0.6530383	0.6530381	-5.132229e-11	0.06349814	0.06349814	0	157102.36	157102.31	-1.0522959e-05	621775.1	292478.53	5.984635e-05	292478.4	621774.75	-0.00010391924
0	0.6529471	0.65294695	-1.9113128e-10	0.06335683	0.06335683	0	157080.42	157080.36	-4.7193877e-05	621854.3	292271.72	-0.0001804669	292271.62	621854	-4.4536817e-05
0	0.65285474	0.6528545	-2.5661145e-10	0.06321529	0.06321529	0	157058.19	157058.16	-6.0267856e-05	621934.06	292062.72	-0.0001456725	292062.62	621933.7	-0.00021526129
0	0.6527642	0.652764	-2.2121677e-10	0.06307396	0.06307396	0	157036.4	157036.38	-5.871333e-05	622012.8	291857.1	-0.00018510614	291857.03	622012.5	-0.00012989905
0	0.6526712	0.65267104	-7.0789364e-12	0.0629325	0.06293249	0	157014.06	157014.02	-3.507653e-06	622092.25	291647.56	-7.515588e-05	291647.47	622092	6.309382e-05
0	0.65257984	0.6525796	-4.0349937e-10	0.06279103	0.06279103	0	156992.05	156992.02	-0.00010012755	622171.7	291440.16	-0.00017907511	291440.06	622171.4	-0.00039340855
0	0.65248674	0.65248656	1.39809e-10	0.06264969	0.06264969	0	156969.66	156969.64	2.997449e-05	622251.4	291230.22	0.0001475282	291230.12	622251.06	4.0825416e-05
0	0.65239537	0.65239525	2.8315746e-11	0.062508225	0.062508225	0	156947.69	156947.64	9.885204e-06	622330.4	291023.28	5.5671022e-05	291023.2	622330.06	2.9691211e-05
0	0.6523019	0.65230185	-9.556564e-11	0.06236684	0.06236684	0	156925.2	156925.19	-2.2321428e-05	622409.8	290812.97	-5.195962e-05	290812.84	622409.56	-0.00012618765
0	0.65220845	0.6522082	-1.7166421e-10	0.062225346	0.062225346	0	156902.72	156902.67	-4.4961736e-05	622489.9	290601.97	-0.00020319923	290601.84	622489.6	-7.422803e-05
0	0.65211606	0.6521158	-3.1855213e-11	0.062084038	0.062084038	0	156880.48	156880.44	-7.3740434e-06	622569.75	290392.72	3.479439e-05	290392.7	622569.4	-8.165083e-05
0	0.65202296	0.6520227	-3.8049283e-10	0.061942577	0.061942574	0	156858.08	156858.05	-9.558355e-05	622649.06	290183.06	-0.00025840633	290182.97	622648.8	-0.00031175773
0	0.6519293	0.6519291	-3.6456524e-10	0.061801083	0.061801083	0	156835.56	156835.5	-8.856824e-05	622728.94	289972.12	-0.0001934568	289972.03	622728.6	-0.00033402612
0	0.65183485	0.6518346	-1.8626452e-10	0.061659772	0.061659772	0	156812.83	156812.8	-4.2330994e-05	622809.06	289759.72	-0.00017258017	289759.62	622808.75	-7.793943e-05
0	0.6517414	0.6517412	-7.893014e-10	0.06151823	0.061518237	0	156790.36	156790.31	-0.00019040976	622888.44	289549.6	-0.00046114164	289549.5	622888.1	-0.00068289787
0	0.6516479	0.65164775	-5.663149e-11	0.061376892	0.061376892	0	156767.88	156767.84	-1.1280294e-05	622967.6	289339.66	-4.1753265e-05	289339.56	622967.3	-5.5671022e-05
0	0.65155256	0.65155244	-2.442233e-10	0.06123543	0.06123543	0	156744.95	156744.9	-6.0586735e-05	623048.56	289125.25	-4.7784295e-05	289125.12	623048.2	-0.00033402612
0	0.6514582	0.6514581	-1.39809e-10	0.061093967	0.061093967	0	156722.23	156722.17	-3.2047195e-05	623128.1	288913.47	-4.546467e-05	288913.4	623127.75	-0.000100207835
0	0.65136254	0.65136236	-3.3801922e-10	0.060952656	0.060952656	0	156699.2	156699.17	-7.9201214e-05	623208.56	288699.06	-0.00023521007	288698.97	623208.25	-0.0002449525
0	0.6512671	0.65126693	-5.026045e-10	0.060811166	0.060811166	0	156676.27	156676.22	-0.00011937978	623288.7	288485.38	-0.0002857779	288485.28	623288.3	-0.00040825416
0	0.6511724	0.6511722	-3.8226255e-10	0.060669772	0.060669776	0	156653.48	156653.42	-8.928571e-05	623369	288272.44	-0.00025515884	288272.3	623368.7	-0.0002746437
0	0.65107626	0.6510761	-5.132229e-11	0.060528316	0.060528316	0	156630.34	156630.28	-1.434949e-05	623449.3	288057.53	1.0206354e-05	288057.44	623448.94	-5.195962e-05
0	0.65098095	0.65098083	-4.1588752e-10	0.060386974	0.060386974	0	156607.42	156607.39	-0.00010104432	623529.6	287843.8	-0.00027928295	287843.75	623529.4	-0.0003006235
0	0.65088505	0.6508849	-3.574863e-10	0.06024551	0.06024551	0	156584.36	156584.3	-8.984375e-05	623610.1	287629.06	-0.00028670576	287629	623609.8	-0.0002338183
0	0.6507892	0.6507889	-2.1413783e-10	0.06010405	0.06010405	0	156561.27	156561.23	-5.1458865e-05	623690.2	287414.72	-0.00023613792	287414.62	623689.75	-4.0825416e-05
0	0.65069234	0.65069216	-1.6989447e-10	0.059962712	0.059962712	0	156537.98	156537.95	-3.635204e-05	623770.75	287198.62	-0.00016701306	287198.56	623770.44	-4.8248217e-05
0	0.65059507	0.6505949	-5.0614396e-10	0.059821166	0.059821166	0	156514.6	156514.52	-0.00012181122	623851.06	286982.12	-0.00041382125	286982.06	623850.7	-0.00032289192
0	0.6504987	0.65049857	-1.1768732e-10	0.05967986	0.05967985	0	156491.39	156491.34	-2.614796e-05	623932	286766.22	-7.283625e-05	286766.1	623931.7	-8.165083e-05
0	0.65040106	0.6504009	-3.9642045e-10	0.059538368	0.059538364	0	156467.9	156467.88	-9.386958e-05	624012.44	286549.2	-0.00026814875	286549.1	624012.2	-0.00027835512
0	0.6503043	0.6503041	-3.7695336e-10	0.059396908	0.059396908	0	156444.66	156444.61	-9.0561225e-05	624092.4	286333.72	-0.00016886876	286333.66	624092.06	-0.00039711996
0	0.65020585	0.65020555	-3.3624947e-10	0.059255596	0.059255596	0	156420.94	156420.9	-8.5339605e-05	624173.9	286114.38	-0.0002802108	286114.3	624173.56	-0.00021897268
0	0.650109	0.65010893	-3.4332842e-10	0.059114102	0.059114102	0	156397.67	156397.62	-8.163265e-05	624254.4	285898.5	-0.0002764994	285898.4	624254.06	-0.00020412708
0	0.65001106	0.6500109	-2.5130226e-10	0.058972705	0.058972713	0	156374.1	156374.06	-6.441327e-05	624335.44	285680.12	-0.00024170501	285680.1	624335.06	-0.00010763064
0	0.6499134	0.64991313	-4.1765724e-10	0.058831252	0.05883125	0	156350.56	156350.53	-0.0001011639	624415.94	285462.88	-0.000390625	285462.8	624415.56	-0.00017072447
0	0.64981455	0.6498143	-3.8580203e-10	0.0586899	0.0586899	0	156326.81	156326.77	-9.0561225e-05	624496.75	285243.72	-0.0002338183	285243.6	624496.44	-0.0002672209
0	0.64971554	0.6497153	-1.9290101e-10	0.05854845	0.05854845	0	156303	156302.94	-4.0816325e-05	624578.25	285023.6	-0.0001382497	285023.53	624577.9	-0.000118764845
0	0.649616	0.6496158	-2.6192065e-10	0.058406986	0.058406986	0	156279.06	156279.02	-5.8992347e-05	624659.1	284803.38	-0.00015866241	284803.3	624658.75	-0.00015587886
0	0.6495178	0.64951754	-1.4688793e-10	0.05826565	0.05826565	0	156255.4	156255.34	-3.1887754e-05	624740.06	284584.78	-1.8557008e-05	284584.72	624739.8	-0.00018185868
0	0.6494183	0.6494181	-7.4328835e-11	0.058124106	0.058124106	0	156231.48	156231.42	-2.072704e-05	624821.3	284364.25	-0.00011412559	284364.22	624820.94	-3.340261e-05
0	0.64931864	0.6493184	-3.627955e-10	0.05798278	0.05798278	0	156207.52	156207.47	-8.227041e-05	624902.3	284143.88	-0.00028995323	284143.8	624901.94	-0.00020783849
0	0.6492182	0.6492181	-4.1411777e-10	0.05784131	0.05784131	0	156183.38	156183.31	-0.000100765305	624983.3	283922.28	-0.0003043349	283922.22	624983	-0.00029691213
0	0.6491175	0.6491173	-4.0349937e-10	0.057699848	0.057699848	0	156159.12	156159.1	-9.8134566e-05	625065.2	283699.38	-0.00031175773	283699.3	625064.9	-0.00024866388
0	0.64901817	0.649018	-3.1501268e-10	0.05755853	0.05755853	0	156135.25	156135.17	-7.8125e-05	625146.4	283479.12	-0.00024031324	283479.06	625146	-0.00022639548
0	0.64891803	0.6489178	4.0703885e-11	0.05741706	0.05741706	0	156111.12	156111.08	9.247449e-06	625227.3	283257.97	4.0825416e-05	283257.9	625227	6.309382e-05
0	0.64881706	0.6488168	-3.787231e-10	0.057275645	0.057275645	0	156086.84	156086.78	-8.67347e-05	625308.8	283035.06	-0.00024912783	283035	625308.44	-0.00029320072
0	0.64871585	0.6487157	-6.043642e-10	0.05713419	0.05713419	0	156062.52	156062.47	-0.0001434949	625390.6	282811.72	-0.00038784146	282811.66	625390.3	-0.00043794536
0	0.648615	0.64861476	-3.8226255e-10	0.056992844	0.056992844	0	156038.25	156038.19	-8.928571e-05	625471.6	282589.44	-0.00033402612	282589.4	625471.4	-0.00019299287
0	0.6485134	0.64851314	-3.3978895e-10	0.056851387	0.056851387	0	156013.78	156013.73	-8.1154336e-05	625553.3	282365.44	-0.0002653652	282365.38	625552.9	-0.0002338183
0	0.64841163	0.64841145	-3.5394682e-12	0.056709927	0.056709927	0	155989.31	155989.25	1.434949e-06	625635.06	282141.25	-9.2785035e-07	282141.22	625634.75	-7.422803e-06
0	0.6483096	0.64830935	-3.4863762e-10	0.056568585	0.056568585	0	155964.77	155964.7	-8.466199e-05	625716.8	281916.62	-0.00030247922	281916.56	625716.5	-0.00017072447
0	0.64820784	0.64820766	-5.132229e-10	0.056427047	0.056427047	0	155940.3	155940.25	-0.00012053571	625798.1	281692.9	-0.00034887175	281692.84	625797.8	-0.00036742873
0	0.64810526	0.64810497	-1.2211165e-10	0.05628571	0.05628571	0	155915.61	155915.55	-3.0771684e-05	625880.1	281467.25	-4.6856443e-05	281467.16	625879.75	-0.00014845606
0	0.64800245	0.6480022	1.9290101e-10	0.05614425	0.05614424	0	155890.86	155890.83	4.408482e-05	625961.9	281241.6	0.00020876633	281241.53	625961.56	9.6496435e-05
0	0.64789957	0.6478993	-2.5838118e-10	0.056002792	0.056002792	0	155866.12	155866.05	-5.9630103e-05	626044.06	281015.4	-0.00018557007	281015.34	626043.6	-0.00020041567
0	0.64779633	0.6477961	-2.79618e-10	0.05586147	0.05586147	0	155841.28	155841.23	-6.441327e-05	626125.94	280789	-0.00032289192	280788.94	626125.56	-0.00010391924
0	0.64769286	0.6476927	-3.167824e-10	0.05572	0.05572	0	155816.4	155816.36	-7.102997e-05	626207.94	280562.16	-0.00010948634	280562.12	626207.6	-0.0003154691
0	0.6475899	0.6475896	-2.7076932e-10	0.055578664	0.055578668	0	155791.61	155791.55	-6.664541e-05	626289.4	280336.5	-9.881606e-05	280336.4	626289	-0.0002597981
0	0.6474852	0.647485	-1.1503272e-10	0.055437125	0.055437125	0	155766.45	155766.39	-3.3282846e-05	626371.8	280107.53	4.6392518e-07	280107.44	626371.4	-0.00018557007
0	0.6473819	0.64738166	-2.4245358e-10	0.05529578	0.05529578	0	155741.58	155741.53	-5.636161e-05	626453.56	279881.06	-0.00032289192	279881	626453.3	-5.9382422e-05
0	0.6472771	0.6472769	-2.495325e-10	0.055154327	0.055154327	0	155716.38	155716.31	-6.5369895e-05	626536.25	279651.78	-0.00017814727	279651.72	626535.9	-0.00021526129
0	0.64717287	0.6471727	-4.1588752e-10	0.05501287	0.05501287	0	155691.31	155691.27	-9.8373726e-05	626617.9	279424.16	-0.0002579424	279424.12	626617.56	-0.00032289192
0	0.6470676	0.64706737	-1.3449979e-10	0.054871522	0.054871522	0	155665.98	155665.94	-3.1648597e-05	626700.2	279194.5	-3.479439e-05	279194.47	626699.8	-0.00012989905
0	0.64696294	0.6469627	-4.1411777e-10	0.05473008	0.05473008	0	155640.8	155640.73	-0.000100765305	626782.5	278965.6	-0.00025283924	278965.53	626782.1	-0.0003154691
0	0.6468567	0.6468565	-3.2563108e-10	0.05458865	0.05458865	0	155615.25	155615.19	-7.653061e-05	626865	278734.47	-0.00023892146	278734.44	626864.6	-0.00021526129
0	0.64675194	0.6467517	-7.0789364e-12	0.054447185	0.054447185	0	155590.05	155590	-6.377551e-07	626947.25	278505.56	-2.9691211e-05	278505.53	626946.9	5.195962e-05
0	0.6466455	0.64664525	-2.0528916e-10	0.054305855	0.054305855	0	155564.42	155564.36	-4.846939e-05	627029.75	278274	-0.00018974539	278273.94	627029.3	-9.6496435e-05
0	0.6465394	0.6465392	-2.9731534e-10	0.054164406	0.054164406	0	155538.9	155538.84	-7.557398e-05	627112.56	278042.75	-0.00025701456	278042.7	627112.1	-0.00016701306
0	0.64643395	0.64643365	-5.5746624e-10	0.054022938	0.054022938	0	155513.52	155513.45	-0.00013520409	627194.6	277812.84	-0.00032660333	277812.78	627194.2	-0.00046021378
0	0.64632636	0.6463262	-3.8049283e-10	0.0538816	0.0538816	0	155487.66	155487.61	-9.534439e-05	627277.5	277579.47	-0.0003006235	277579.4	627277.1	-0.00023752969
0	0.6462202	0.64621997	-4.3712434e-10	0.05374007	0.05374007	0	155462.12	155462.05	-0.00010435268	627360.25	277348.1	-0.0001971682	277348.03	627359.9	-0.00041196556
0	0.646113	0.6461128	-1.9644049e-10	0.05359871	0.05359871	0	155436.33	155436.27	-4.563935e-05	627442.94	277115.28	-0.000100207835	277115.22	627442.56	-0.00014845606
0	0.64600575	0.64600545	-2.849272e-10	0.053457264	0.053457264	0	155410.52	155410.44	-7.302296e-05	627525.7	276882.34	-0.00017350801	276882.3	627525.3	-0.0002560867
0	0.64589816	0.645898	-2.495325e-10	0.053315822	0.05331583	0	155384.64	155384.6	-6.616709e-05	627608.56	276648.9	-0.00027557157	276648.84	627608.2	-8.536223e-05
0	0.6457905	0.64579034	-2.1590756e-10	0.053174462	0.053174462	0	155358.75	155358.7	-5.484694e-05	627691.2	276415.6	-0.00023752969	276415.5	627690.8	-5.9382422e-05
0	0.6456824	0.64568216	6.901963e-11	0.053033024	0.053033024	0	155332.73	155332.69	1.4668367e-05	627774	276181.44	6.587738e-05	276181.34	627773.6	2.2268408e-05
0	0.64557385	0.6455736	-2.79618e-10	0.052891586	0.052891586	0	155306.62	155306.56	-6.8239795e-05	627857.1	275946.3	-0.0002412411	275946.28	627856.8	-0.00015959026
0	0.6454654	0.645465	-4.0526912e-10	0.052750126	0.052750126	0	155280.52	155280.45	-9.438775e-05	627940.1	275711.28	-0.0002820665	275711.22	627939.8	-0.0002894893
0	0.6453567	0.64535636	-3.008548e-11	0.052608777	0.052608777	0	155254.36	155254.3	-5.1020406e-06	628022.94	275476.38	-1.6701306e-05	275476.3	628022.56	7.422803e-06
0	0.64524746	0.6452472	-2.2652596e-10	0.052467346	0.05246734	0	155228.11	155228.05	-5.480708e-05	628105.94	275240.62	-0.00016840483	275240.6	628105.56	-0.00016330167
0	0.6451384	0.6451382	-1.7166421e-10	0.052325882	0.052325882	0	155201.89	155201.81	-3.5594705e-05	628189	275004.94	-0.00015031175	275004.88	628188.56	-7.0516624e-05
0	0.645029	0.64502877	-9.025644e-11	0.05218454	0.05218454	0	155175.55	155175.5	-2.8061224e-05	628271.94	274768.7	-0.000136394	274768.66	628271.5	-1.2525979e-05
0	0.6449183	0.644918	-8.317751e-11	0.05204301	0.052043002	0	155148.92	155148.86	-1.8534758e-05	628355.44	274530.25	-0.00010670279	274530.22	628355.06	0
0	0.64480853	0.64480823	-7.078937e-11	0.051901635	0.051901635	0	155122.52	155122.44	-1.8494899e-05	628438.5	274293.34	-0.00010391924	274293.3	628438.2	1.4845606e-05
0	0.64469886	0.64469856	-2.1590756e-10	0.0517602	0.0517602	0	155096.11	155096.05	-5.4209184e-05	628521.5	274056.94	-0.00017536372	274056.9	628521	-0.00013361045
0	0.6445868	0.64458656	-5.539268e-10	0.051618766	0.051618766	0	155069.17	155069.11	-0.00013392857	628605.25	273816.28	-0.00033588184	273816.25	628604.9	-0.00043794536
0	0.64447594	0.6444757	-2.0528916e-10	0.05147742	0.05147742	0	155042.48	155042.42	-5.1020408e-05	628688.6	273577.72	-3.340261e-05	273577.7	628688.2	-0.00024866388
0	0.6443651	0.6443648	1.557366e-10	0.05133596	0.05133596	0	155015.81	155015.75	4.145408e-05	628772	273339.03	0.00020598278	273338.97	628771.6	5.5671022e-05
0	0.6442541	0.64425385	-2.2652596e-10	0.051194515	0.051194515	0	154989.14	154989.06	-5.8035715e-05	628855.44	273100.44	-0.0002616538	273100.38	628855.06	-4.8248217e-05
0	0.6441414	0.6441411	-3.59256e-10	0.05105309	0.05105309	0	154962	154961.94	-8.577806e-05	628939.3	272858.66	-0.00033773753	272858.6	628938.9	-0.00014474466
0	0.6440305	0.6440302	-1.557366e-10	0.050911706	0.050911706	0	154935.33	154935.27	-3.5714285e-05	629022.5	272620.25	4.917607e-05	272620.22	629022.1	-0.00026350952
0	0.6439177	0.6439175	-9.556564e-11	0.05077028	0.05077028	0	154908.2	154908.16	-2.5191326e-05	629106.44	272378.5	-0.00015680671	272378.44	629105.94	3.340261e-05
0	0.6438056	0.6438054	-2.4599303e-10	0.050628845	0.050628845	0	154881.25	154881.17	-5.9570313e-05	629189.5	272138.4	-0.00020551885	272138.34	629189.1	-0.00015587886
0	0.6436925	0.64369226	7.963803e-11	0.050487474	0.050487474	0	154854.03	154853.97	2.2819675e-05	629273.25	271896.38	0.00010763064	271896.28	629272.75	-1.1134204e-05
0	0.643579	0.6435787	-4.778282e-11	0.050345942	0.050345946	0	154826.72	154826.64	-1.5625e-05	629357.4	271653.2	-2.1340558e-05	271653.12	629356.94	-6.309382e-05
0	0.64346755	0.64346725	-7.078937e-11	0.05020459	0.05020459	0	154799.89	154799.83	-1.7857143e-05	629440.2	271414.28	-5.8918497e-05	271414.28	629439.9	-2.597981e-05
0	0.6433523	0.64335215	-1.1326298e-10	0.050063137	0.050063137	0	154772.2	154772.12	-2.997449e-05	629524.94	271168.4	2.597981e-05	271168.4	629524.5	-0.00018928148
0	0.6432382	0.6432378	-2.9908506e-10	0.04992171	0.04992171	0	154744.7	154744.64	-7.047194e-05	629609.06	270924.3	-0.00019206502	270924.28	629608.56	-0.00022268409
0	0.6431246	0.64312434	-5.3092024e-11	0.049780354	0.049780354	0	154717.39	154717.34	-1.1180644e-05	629692.7	270681.7	2.4124109e-05	270681.72	629692.25	-5.5671022e-05
0	0.64300966	0.6430095	-2.6722985e-10	0.0496389	0.049638905	0	154689.75	154689.69	-6.377551e-05	629777	270436.56	-0.00020969418	270436.53	629776.7	-0.00017443587
0	0.64289516	0.64289486	-1.6458528e-10	0.049497455	0.049497455	0	154662.2	154662.14	-3.635204e-05	629860.75	270192.44	-0.00014799213	270192.4	629860.3	-9.2785034e-05
0	0.6427812	0.64278084	-4.0880857e-10	0.04935602	0.04935602	0	154634.81	154634.73	-9.948979e-05	629944.6	269949.2	-0.00023010689	269949.2	629944.1	-0.00033402612
0	0.64266545	0.6426651	-2.4068383e-10	0.04921464	0.04921464	0	154606.95	154606.89	-5.7975925e-05	630028.6	269703	-0.00026397343	269703	630028.25	-9.2785034e-05
0	0.64255106	0.6425507	-2.2121677e-10	0.04907321	0.04907321	0	154579.4	154579.34	-5.484694e-05	630112.56	269458.88	-0.00015773455	269458.84	630112.1	-0.00014845606
0	0.6424338	0.6424336	-2.336049e-10	0.04893179	0.04893179	0	154551.23	154551.16	-5.699936e-05	630197.4	269210.1	-0.00017629156	269210.1	630196.94	-0.000111342044
0	0.6423188	0.6423184	-2.0705888e-10	0.048790418	0.048790418	0	154523.55	154523.48	-5.3890308e-05	630281.56	268964.72	-0.00016330167	268964.72	630281.1	-0.00015216746
0	0.64220256	0.6422023	-4.1234804e-10	0.048648883	0.048648883	0	154495.61	154495.53	-0.00010108418	630365.5	268718.16	-0.00024402465	268718.12	630365.06	-0.00033402612
0	0.64208484	0.6420845	-1.3096033e-10	0.04850753	0.04850753	0	154467.25	154467.19	-3.0293368e-05	630450.44	268468.34	-6.309382e-05	268468.3	630449.94	-0.00015587886
0	0.6419673	0.64196694	-3.4332842e-10	0.04836608	0.048366077	0	154438.98	154438.92	-8.5459185e-05	630534.8	268219.4	6.355775e-05	268219.38	630534.3	-0.00058640144
0	0.6418515	0.6418512	-4.795979e-10	0.048224654	0.048224654	0	154411.16	154411.08	-0.0001154536	630619.06	267973.03	-0.0003572224	267973.03	630618.6	-0.0002746437
0	0.6417335	0.6417332	-1.8405234e-10	0.04808329	0.04808329	0	154382.77	154382.67	-4.1434152e-05	630703.25	267723.66	-6.0774197e-05	267723.62	630702.75	-0.00020783849
0	0.6416162	0.6416159	-1.7874315e-10	0.04794185	0.04794185	0	154354.53	154354.45	-4.3526787e-05	630787.8	267474.8	-0.00013964147	267474.78	630787.4	-0.000111342044
0	0.64149874	0.64149845	-2.7076932e-10	0.047800384	0.047800384	0	154326.27	154326.2	-6.441327e-05	630872.44	267225.88	-0.00029876782	267225.84	630872	-0.000100207835
0	0.6413799	0.64137954	-3.2563108e-10	0.047658965	0.04765896	0	154297.67	154297.6	-7.52551e-05	630956.75	266975.03	-0.0002319626	266975	630956.25	-0.00020412708
0	0.64126176	0.6412614	-2.3714436e-10	0.04751758	0.04751758	0	154269.25	154269.17	-5.994898e-05	631041.3	266725.1	-0.0001990239	266725.06	631040.9	-0.00012618765
0	0.641143	0.64114267	-4.1765724e-10	0.047376156	0.047376156	0	154240.69	154240.61	-9.783562e-05	631126.4	266473.88	-0.00023010689	266473.84	631125.9	-0.00034144893
0	0.64102465	0.64102435	-5.6277544e-10	0.047234733	0.047234733	0	154212.23	154212.16	-0.00012731187	631210.5	266224.1	-0.00037485154	266224.1	631210	-0.00040825416
0	0.6409043	0.64090395	-2.8315747e-10	0.047093347	0.047093347	0	154183.25	154183.19	-6.792092e-05	631295.44	265970.62	-0.00023984932	265970.6	631295	-0.00018185868
0	0.6407855	0.6407853	-3.4332842e-10	0.046951823	0.046951823	0	154154.69	154154.62	-8.2589286e-05	631380.2	265719.66	-0.00020923026	265719.62	631379.7	-0.0002672209
0	0.6406645	0.6406642	-2.0882862e-10	0.046810463	0.046810456	0	154125.58	154125.5	-4.681521e-05	631465.2	265465.22	-8.397046e-05	265465.2	631464.7	-0.00019670428
0	0.64054424	0.64054394	-1.3096033e-10	0.04666902	0.046669025	0	154096.64	154096.58	-2.7104592e-05	631550.44	265211.56	-7.8403355e-05	265211.5	631550	-6.680522e-05
0	0.6404254	0.640425	-4.1588752e-10	0.046527658	0.046527658	0	154068.05	154067.98	-9.988839e-05	631634.4	264961.1	-0.0002709323	264961.1	631633.94	-0.00035629453
0	0.6403027	0.6403024	-4.4243353e-10	0.046386234	0.046386234	0	154038.53	154038.45	-0.00011065051	631720.2	264703.6	-0.00024077717	264703.6	631719.75	-0.00035258313
0	0.6401822	0.64018196	-2.8669692e-10	0.0462448	0.0462448	0	154009.53	154009.45	-6.8239795e-05	631805.1	264449.94	-0.00012154839	264449.94	631804.7	-0.0002560867
0	0.640061	0.64006066	-1.6812474e-10	0.04610342	0.04610342	0	153980.39	153980.31	-4.7193877e-05	631890.06	264195.28	-0.00012294017	264195.28	631889.7	-0.00014103325
0	0.6399386	0.6399384	-3.946507e-10	0.045961898	0.045961898	0	153950.95	153950.89	-9.502551e-05	631975.1	263939.12	-0.00030340705	263939.16	631974.56	-0.0002560867
0	0.6398174	0.63981706	-2.6722985e-10	0.045820512	0.045820512	0	153921.78	153921.7	-6.505102e-05	632060.06	263684.25	-0.00015587886	263684.25	632059.6	-0.00021897268
0	0.6396957	0.63969535	-3.2917055e-10	0.0456791	0.0456791	0	153892.5	153892.44	-8.240992e-05	632145	263428.97	-0.0003187166	263428.94	632144.56	-0.00014474466
0	0.6395717	0.6395713	-6.7603845e-10	0.045537677	0.045537677	0	153862.67	153862.58	-0.0001632653	632230.75	263169.6	-0.00047134797	263169.6	632230.25	-0.00048619357
0	0.63944954	0.6394492	-3.4863762e-10	0.045396283	0.045396283	0	153833.28	153833.2	-8.537946e-05	632316.1	262913.22	-0.00023428221	262913.22	632315.7	-0.00023010689
0	0.6393273	0.63932705	-2.2475623e-10	0.04525487	0.04525487	0	153803.89	153803.81	-5.337213e-05	632400.75	262657.53	-0.00012989905	262657.53	632400.25	-0.00014845606
0	0.6392022	0.6392018	-4.4774273e-10	0.045113385	0.045113392	0	153773.78	153773.69	-0.000102040816	632486.7	262396.34	-0.00032660333	262396.34	632486.25	-0.0002894893