//mumax 3.10 [windows_amd64 go1.11.6(gc) CUDA-11.0]
//GPU info: NVIDIA GeForce RTX 3090(24575MB), CUDA Driver 12.1, cc=8.6, using cc=80 PTX
//(c) Arne Vansteenkiste, Dynamat LAB, Ghent University, Belgium
//This is free software without any warranty. See license.txt
//********************************************************************//
//  If you use mumax in any work or publication,                      //
//  we kindly ask you to cite the references in references.bib        //
//********************************************************************//
//output directory: r1;p0.5;a5.12e-07;l1.8000000000000002e-07;s4.out/
randSeed(4)
ThermSeed(4)
resolution := 2e-09
zResolution := 5e-09
a := 5.12e-07
gridSize := 512
gridDepth := 5
SetCellsize(resolution, resolution, zResolution)
SetGridsize(gridSize, gridSize, gridDepth)
SetPBC(16, 16, 0)
//resizing...
Msat = 700e3
Aex = 13e-12
alpha = 0.2
Bmax := 0.1
Bstep := Bmax / 500.0
TableAdd(B_ext)
TableAdd(m_full)
islandWidth := 8e-08
islandLength := 1.8000000000000002e-07
ellipseConstant := 4.5000000000000006e-08
hIsland := Universe().Inverse()
vIsland := Universe().Inverse()
vIslands := Universe().Inverse()
hIslands := Universe().Inverse()
hIsland = rect(islandLength-2*ellipseConstant, islandWidth)
hIsland = hIsland.add(ellipse(ellipseConstant*2, islandWidth).transl(islandLength/2-ellipseConstant, 0, 0))
hIsland = hIsland.add(ellipse(ellipseConstant*2, islandWidth).transl(-islandLength/2+ellipseConstant, 0, 0))
hIsland = hIsland.sub(rect(3.0285709280471194e-09, -1.0305345338300322e-09).transl(4.592407733909468e-08, -3.99915653435108e-08, 0))
hIsland = hIsland.add(rect(7.863442744123325e-09, 5.589501975825552e-10).transl(1.3064932175143328e-08, -4e-08, 0))
hIsland = hIsland.add(rect(3.5780543216679802e-09, 1.8376338555494118e-09).transl(-5.316436372742575e-08, -3.933615221463425e-08, 0))
hIsland = hIsland.add(rect(2.454954741577554e-09, 2.1428603262587475e-09).transl(5.821082473852648e-08, -3.823745546292096e-08, 0))
hIsland = hIsland.add(rect(4.002823968673412e-09, 2.843585465484584e-09).transl(3.731328975945191e-08, -4e-08, 0))
hIsland = hIsland.add(rect(4.123979602364164e-09, 1.0540739218001718e-09).transl(-3.99175394350107e-08, -4e-08, 0))
hIsland = hIsland.add(rect(7.917659591981403e-09, 9.39808280522879e-10).transl(3.273171104861264e-08, -4e-08, 0))
hIsland = hIsland.sub(rect(4.586595832432717e-09, -1.2869740178321013e-09).transl(-8.598543161123434e-08, -1.6515029190053317e-08, 0))
hIsland = hIsland.sub(rect(7.988903656527477e-09, -2.445773244032784e-09).transl(-2.0440206426785606e-08, -4e-08, 0))
hIsland = hIsland.sub(rect(6.479522231367449e-09, -3.260948258490767e-09).transl(8.066778409417506e-08, -2.438877179924413e-08, 0))
hIsland = hIsland.sub(rect(7.558847623896526e-09, -3.981051596901322e-09).transl(2.5452942030758676e-08, -4e-08, 0))
hIsland = hIsland.add(rect(9.534405324809024e-09, 2.247546009610706e-09).transl(-5.3779812023386377e-08, -3.9231279038287175e-08, 0))
hIsland = hIsland.sub(rect(9.889159071458597e-09, -3.060979129318399e-09).transl(5.943284780437142e-08, -3.788682722842759e-08, 0))
hIsland = hIsland.sub(rect(5.570017999733493e-09, -2.1922958747076059e-10).transl(2.9278607401674628e-08, -4e-08, 0))
hIsland = hIsland.sub(rect(3.764621189288654e-09, -2.789573306507867e-09).transl(8.242920106608267e-08, -2.220541422230185e-08, 0))
hIsland = hIsland.sub(rect(4.7241765634996586e-09, -1.1803306502271907e-09).transl(4.3224808499854216e-08, -4e-08, 0))
hIsland = hIsland.add(rect(6.179012775643422e-09, 9.148312891412061e-10).transl(-1.5866486592077242e-08, -4e-08, 0))
hIsland = hIsland.add(rect(4.516778513395446e-09, 9.073600986280479e-10).transl(4.370611405299202e-09, -4e-08, 0))
hIsland = hIsland.add(rect(6.314979145717483e-09, 1.2140497632412477e-10).transl(8.051419378706041e-08, -2.4565229501639982e-08, 0))
hIsland = hIsland.sub(rect(6.231906314544481e-09, -4.995553277899441e-10).transl(2.4055637938938253e-08, -4e-08, 0))
hIsland = hIsland.add(rect(9.301268364902531e-09, 4.412450259080281e-10).transl(7.18549766361476e-08, -3.209627775653688e-08, 0))
hIsland = hIsland.sub(rect(3.492538071600464e-09, -4.484170755609613e-09).transl(3.861618206695592e-08, -4e-08, 0))
hIsland = hIsland.sub(rect(3.582472252993987e-09, -5.387240921250205e-10).transl(-4.1886835864668326e-09, -4e-08, 0))
hIsland = hIsland.sub(rect(8.239839669295805e-09, -2.1095377785858725e-09).transl(6.13239082140901e-08, -3.72754050113459e-08, 0))
hIsland = hIsland.add(rect(4.873134452867323e-09, 5.718560837857412e-10).transl(7.286133501280063e-08, -3.141120047220071e-08, 0))
hIsland = hIsland.sub(rect(9.609625601065724e-09, -1.801783696001043e-10).transl(4.61710798861449e-08, -3.998645273700957e-08, 0))
hIsland = hIsland.sub(rect(5.68455215186624e-09, -1.922412068711905e-09).transl(4.244531182772303e-08, -4e-08, 0))
hIsland = hIsland.add(rect(3.9381541728472635e-09, 1.2857845125962115e-09).transl(1.6561723484637803e-08, -4e-08, 0))
hIsland = hIsland.add(rect(3.7972179003859674e-09, 1.6109209463906015e-09).transl(-4.009852281122252e-08, -4e-08, 0))
hIsland = hIsland.add(rect(6.672533991526633e-09, 1.2817722807787825e-09).transl(-2.3777833756353894e-08, -4e-08, 0))
hIsland = hIsland.add(rect(6.971347405436233e-09, 2.679367629179213e-11).transl(5.1504210750625196e-08, -3.957996991881728e-08, 0))
hIsland = hIsland.add(rect(6.221168191129212e-09, 2.367553609057516e-09).transl(-3.607656810457886e-08, -4e-08, 0))
hIsland = hIsland.add(rect(6.653772601056316e-09, 1.4257418849251506e-09).transl(-2.438701489571642e-08, -4e-08, 0))
hIsland = hIsland.sub(rect(2.4931683098216037e-09, -6.270409843901611e-11).transl(7.573741585334489e-08, -2.9214726767092753e-08, 0))
hIsland = hIsland.sub(rect(7.73187823875968e-09, -3.3759583972141085e-09).transl(7.876637485878305e-08, -2.6440999647095308e-08, 0))
hIsland = hIsland.sub(rect(7.605930326389796e-09, -2.612591022812149e-09).transl(8.090653231039752e-08, -2.4110378892187556e-08, 0))
hIsland = hIsland.sub(rect(2.3445797300317398e-09, -1.0133555526797562e-11).transl(-5.208645778331162e-08, -3.950090722969114e-08, 0))
hIsland = hIsland.sub(rect(7.287669642581757e-09, -4.784111424288851e-10).transl(-5.721182284032766e-08, -3.849896078550194e-08, 0))
hIsland = hIsland.add(rect(2.5912775469176295e-09, 2.314746769940328e-09).transl(4.023561888928206e-08, -4e-08, 0))
hIsland = hIsland.add(rect(7.926564286297266e-09, 9.727186456828392e-10).transl(2.959537815555632e-08, -4e-08, 0))
hIsland = hIsland.sub(rect(4.6162226901546685e-09, -9.420516564247424e-10).transl(-1.436529413858558e-08, -4e-08, 0))
hIsland = hIsland.sub(rect(5.073014195997847e-09, -6.198521959647746e-11).transl(8.793894342605782e-08, -1.1966938404550962e-08, 0))
hIsland = hIsland.add(rect(3.145955669963873e-09, 4.981239042423491e-10).transl(8.530527641619957e-08, -1.77885454727348e-08, 0))
hIsland = hIsland.sub(rect(4.812770391390899e-09, -6.833916515781858e-10).transl(2.0838417936656493e-08, -4e-08, 0))
hIsland = hIsland.add(rect(5.5381413324017615e-09, 6.011755663988003e-10).transl(-6.065326646814512e-08, -3.750200256844624e-08, 0))
hIsland = hIsland.sub(rect(5.649793000497318e-09, -3.185264123070648e-09).transl(1.1311846621092798e-08, -4e-08, 0))
hIsland = hIsland.sub(rect(5.371599626855776e-09, -2.5749226151324165e-09).transl(-2.4397574248864362e-08, -4e-08, 0))
hIsland = hIsland.add(rect(7.355235456924669e-09, 4.173131455866685e-10).transl(-3.870047606422564e-09, -4e-08, 0))
hIsland = hIsland.sub(rect(3.895362698086279e-09, -2.014801180942217e-10).transl(8.36139931822944e-09, -4e-08, 0))
hIsland = hIsland.sub(rect(9.378344856037286e-09, -9.46481796863597e-11).transl(5.666970603067144e-08, -3.8631585221385926e-08, 0))
hIsland = hIsland.add(rect(9.358158411896089e-09, 2.1975053533280516e-09).transl(-9.817386190729716e-09, -4e-08, 0))
hIsland = hIsland.sub(rect(7.873448193045257e-09, -1.244351689724906e-10).transl(7.956410409645187e-08, -2.5613618414896263e-08, 0))
hIsland = hIsland.sub(rect(7.407991803900876e-09, -2.0100837708265905e-10).transl(-7.540000196318634e-08, -2.9492361924103922e-08, 0))
hIsland = hIsland.sub(rect(5.126533145583185e-09, -3.733567694204048e-09).transl(-1.474745337638291e-08, -4e-08, 0))
hIsland = hIsland.sub(rect(6.090587006258572e-09, -1.973754655165028e-09).transl(1.8675126450607533e-08, -4e-08, 0))
hIsland = hIsland.add(rect(3.03141117266685e-09, 3.8499781066795747e-10).transl(1.7117563024984664e-08, -4e-08, 0))
hIsland = hIsland.add(rect(4.490558653477788e-09, 5.204518104184026e-10).transl(6.743627361691205e-08, -3.467365885253346e-08, 0))
hIsland = hIsland.add(rect(7.926530809683006e-09, 1.780319739315078e-10).transl(5.677212101330669e-08, -3.860702595147965e-08, 0))
hIsland = hIsland.sub(rect(7.3130575048456025e-09, -8.783221113467118e-10).transl(-7.746793614960354e-08, -2.769617342643876e-08, 0))
hIsland = hIsland.sub(rect(5.049209832246969e-09, -4.435673660434725e-09).transl(-2.117549304558062e-08, -4e-08, 0))
hIsland = hIsland.sub(rect(3.1129131722701625e-09, -8.142716156794687e-10).transl(-5.924940904816725e-08, -3.794165076323664e-08, 0))
hIsland = hIsland.sub(rect(2.320214272058353e-09, -1.787694162739399e-09).transl(7.896057510874292e-08, -2.6243747674008606e-08, 0))
hIsland = hIsland.sub(rect(2.761693365152918e-09, -3.9944611133802083e-10).transl(-4.769259943967913e-08, -3.992832994817493e-08, 0))
hIsland = hIsland.add(rect(7.959811576659045e-09, 7.44547507076088e-11).transl(-5.010928704908846e-08, -3.974133835195981e-08, 0))
hIsland = hIsland.add(rect(6.045236262891681e-09, 4.010870426584442e-09).transl(-6.86489817364324e-08, -3.403093045188664e-08, 0))
hIsland = hIsland.add(rect(6.4661043355704215e-09, 3.0517564549035952e-09).transl(3.396340990622901e-08, -4e-08, 0))
hIsland = hIsland.add(rect(2.5098981532338494e-09, 2.9684282413438768e-09).transl(-3.395397628268039e-08, -4e-08, 0))
hIsland = hIsland.sub(rect(2.0809334599992848e-09, -1.4842651580286376e-09).transl(-3.3481231197145884e-09, -4e-08, 0))
hIsland = hIsland.add(rect(4.538612344904031e-09, 2.355692431863055e-09).transl(3.269992537127883e-08, -4e-08, 0))
hIsland = hIsland.sub(rect(7.552075144920392e-09, -1.0496311039948239e-09).transl(-2.4834958623468186e-08, -4e-08, 0))
hIsland = hIsland.sub(rect(8.435778408936585e-09, -4.349453591824319e-09).transl(2.380303553544399e-08, -4e-08, 0))
hIsland = hIsland.sub(rect(9.627520255367728e-09, -3.3937168460043904e-10).transl(-4.745277846235054e-08, -3.9940537311638954e-08, 0))
hIsland = hIsland.sub(rect(4.506954950928202e-09, -2.4725240139560818e-09).transl(-4.848084905455505e-08, -3.9880153198654726e-08, 0))
hIsland = hIsland.sub(rect(8.996515769553089e-09, -1.6888866388005861e-09).transl(-4.736509125543768e-08, -3.994471580415027e-08, 0))
hIsland = hIsland.sub(rect(4.946026834884596e-09, -3.763161243691189e-09).transl(1.0240085024570105e-08, -4e-08, 0))
hIsland = hIsland.sub(rect(7.052622490359257e-09, -7.51108827404663e-10).transl(4.1867085222135903e-08, -4e-08, 0))
hIsland = hIsland.sub(rect(4.720006901587857e-09, -1.4483364193295316e-09).transl(-5.0887318956779254e-08, -3.965619631998016e-08, 0))
hIsland = hIsland.add(rect(6.068366028291736e-09, 4.069040169042101e-10).transl(6.65846440058227e-08, -3.5098204583021426e-08, 0))
hIsland = hIsland.add(rect(8.602605513735757e-09, 3.9717942236723e-09).transl(-4.5542252192932175e-08, -3.9997095821083025e-08, 0))
hIsland = hIsland.add(rect(6.76300458179816e-09, 2.531710080665734e-09).transl(-2.5414017732943883e-08, -4e-08, 0))
hIsland = hIsland.sub(rect(8.824152494140639e-09, -5.1945654568915e-10).transl(-8.821639167684337e-08, -1.1149922984705775e-08, 0))
hIsland = hIsland.sub(rect(3.673467481537394e-09, -5.899480305638871e-09).transl(-5.118303275646145e-08, -3.9620621700658444e-08, 0))
hIsland = hIsland.sub(rect(5.573987647496038e-09, -5.483248991715899e-09).transl(-7.613206964363532e-08, -2.8882655596982403e-08, 0))
hIsland = hIsland.add(rect(9.5964001883119e-09, 1.8316118923266769e-09).transl(-5.511334057997092e-08, -3.8976742338341245e-08, 0))
hIsland = hIsland.add(rect(3.7072482528125442e-09, 2.1376410476448063e-09).transl(5.2378575641911864e-08, -3.945862402032728e-08, 0))
hIsland = hIsland.sub(rect(8.882557386504846e-09, -1.2085926177311171e-09).transl(5.875163821804254e-08, -3.808650267458659e-08, 0))
hIsland = hIsland.sub(rect(3.93455374007966e-09, -2.397579020193822e-09).transl(-3.580758294691673e-08, -4e-08, 0))
hIsland = hIsland.sub(rect(8.086554152231388e-09, -3.2922693826646676e-10).transl(-3.651663227629376e-08, -4e-08, 0))
hIsland = hIsland.add(rect(5.4065271147084275e-09, 4.0076815193927333e-10).transl(-5.97589759973667e-08, -3.778742493825192e-08, 0))
hIsland = hIsland.add(rect(8.463520814231189e-09, 1.8096368621715768e-09).transl(8.664467202508236e-08, -1.5156045399013132e-08, 0))
hIsland = hIsland.sub(rect(5.825797056864882e-09, -9.04873835425984e-10).transl(-2.2026074450689653e-08, -4e-08, 0))
hIsland = hIsland.add(rect(7.956537656868802e-09, 2.441060802090585e-09).transl(-7.897195352559784e-08, -2.6232109226910063e-08, 0))
hIsland = hIsland.sub(rect(7.664409677701355e-09, -3.2314329091517537e-10).transl(-4.877390422072596e-08, -3.9859086577111976e-08, 0))
hIsland = hIsland.add(rect(8.533240598272592e-09, 6.184266347811871e-10).transl(-8.437805125164284e-08, -1.9360013868436848e-08, 0))
hIsland = hIsland.add(rect(8.435154158935826e-09, 5.358254662935408e-10).transl(-7.311796317637757e-08, -3.122999693551217e-08, 0))
hIsland = hIsland.sub(rect(3.558860353913195e-09, -2.146193255721761e-09).transl(-5.3380902097453465e-08, -3.9300154041432415e-08, 0))
hIsland = hIsland.add(rect(8.082465702221176e-09, 4.5315660436398526e-10).transl(2.871701467175519e-08, -4e-08, 0))
hIsland = hIsland.add(rect(2.265821987454455e-09, 1.166173294822192e-09).transl(-2.846351199317793e-08, -4e-08, 0))
hIsland = hIsland.add(rect(6.574996063004469e-09, 2.9345891331348343e-10).transl(-5.367225592186812e-08, -3.92501767775275e-08, 0))
hIsland = hIsland.add(rect(4.383727126089182e-09, 1.0158024077926774e-09).transl(-6.826891518532183e-08, -3.423731368368727e-08, 0))
hIsland = hIsland.add(rect(7.540922069063516e-09, 3.6853472119883417e-09).transl(2.7817494921705845e-08, -4e-08, 0))
hIsland = hIsland.sub(rect(2.734740265755728e-09, -8.807714338470002e-10).transl(-1.909268131951862e-08, -4e-08, 0))
hIsland = hIsland.add(rect(7.212404273797635e-09, 2.5283113596806138e-09).transl(-4.866748162175534e-08, -3.9866935002729654e-08, 0))
hIsland = hIsland.sub(rect(8.165065360615036e-09, -2.2256734845277646e-09).transl(3.26609048083183e-08, -4e-08, 0))
hIsland = hIsland.add(rect(5.069969193882028e-09, 1.4349695895288242e-09).transl(-2.5106549494193015e-08, -4e-08, 0))
hIsland = hIsland.sub(rect(5.484812223018816e-09, -3.1237032546777275e-09).transl(-7.886714987759595e-08, -2.633896662361236e-08, 0))
hIsland = hIsland.sub(rect(6.513672315316328e-09, -2.084236886961722e-09).transl(5.578586685348354e-08, -3.883401920837813e-08, 0))
hIsland = hIsland.add(rect(7.768351069877556e-09, 3.0220640710409083e-09).transl(2.2695941296003807e-08, -4e-08, 0))
hIsland = hIsland.add(rect(8.557590547925116e-09, 3.1659725957489065e-10).transl(2.7307651217402163e-08, -4e-08, 0))
hIsland = hIsland.sub(rect(4.4597447509110174e-09, -2.807746619889871e-10).transl(-3.8149276671829014e-08, -4e-08, 0))
hIsland = hIsland.sub(rect(9.545054962717355e-09, -2.057892315480923e-09).transl(-7.205468003267442e-08, -3.196348890339907e-08, 0))
hIsland = hIsland.add(rect(7.294597000529816e-09, 1.7938861122141337e-09).transl(-2.3535177015474192e-09, -4e-08, 0))
hIsland = hIsland.add(rect(7.561131406060818e-09, 3.2365629762682142e-09).transl(-1.8095247453051573e-08, -4e-08, 0))
hIsland = hIsland.sub(rect(2.875371800430365e-09, -1.1213932394425571e-09).transl(-5.932656954540569e-08, -3.791868524116171e-08, 0))
hIsland = hIsland.sub(rect(4.857625025180304e-09, -2.0896692247980207e-09).transl(-7.982517393566656e-08, -2.533266681931117e-08, 0))
hIsland = hIsland.add(rect(5.250751758770504e-09, 1.3938398777475612e-09).transl(2.547283975992546e-09, -4e-08, 0))
hIsland = hIsland.add(rect(7.607602026870054e-09, 1.1699540198689839e-09).transl(5.6270086574508336e-08, -3.8725218999388334e-08, 0))
hIsland = hIsland.add(rect(4.842342358019474e-09, 9.66948516415177e-10).transl(7.450246491088947e-10, -4e-08, 0))
hIsland = hIsland.sub(rect(7.437813990876087e-09, -2.0076966792771927e-09).transl(-7.664458617123487e-08, -2.8439168483634086e-08, 0))
hIsland = hIsland.sub(rect(7.269435390133314e-09, -2.0397991248303912e-09).transl(-2.226543389179295e-08, -4e-08, 0))
hIsland = hIsland.add(rect(8.27775725411804e-09, 1.4513191543147257e-09).transl(5.490303934921028e-08, -3.901938548684812e-08, 0))
hIsland = hIsland.add(rect(8.513668852099026e-09, 3.1909049977714424e-09).transl(-3.852920528605787e-08, -4e-08, 0))
hIsland = hIsland.sub(rect(3.267644335578859e-09, -7.291316154439657e-10).transl(7.661487953545128e-08, -2.8465261715128134e-08, 0))
hIsland = hIsland.add(rect(2.5475196222083128e-09, 1.4350241120969183e-09).transl(2.5191115099762082e-08, -4e-08, 0))
hIsland = hIsland.sub(rect(7.902178154528422e-09, -2.840366285031754e-09).transl(-6.153673602775395e-08, -3.720120918303874e-08, 0))
hIsland = hIsland.add(rect(4.343538780580004e-09, 7.100875911021128e-10).transl(-1.0326019038582574e-08, -4e-08, 0))
hIsland = hIsland.add(rect(6.439961487951859e-09, 2.282738905042721e-09).transl(-1.7892650602835255e-08, -4e-08, 0))
hIsland = hIsland.sub(rect(7.032665230539356e-09, -1.7189550059354445e-09).transl(-8.937985238994868e-08, -6.617818183377431e-09, 0))
hIsland = hIsland.sub(rect(5.490747281590749e-09, -2.7514878558974964e-09).transl(-7.27188372243786e-08, -3.151065428822171e-08, 0))
hIsland = hIsland.add(rect(5.943882075183301e-09, 1.58666392697504e-09).transl(3.1586844817048874e-08, -4e-08, 0))
hIsland = hIsland.add(rect(9.371045869919499e-09, 3.5663547891312807e-09).transl(5.5370332163594314e-08, -3.892334941309907e-08, 0))
hIsland = hIsland.sub(rect(8.108366355701858e-09, -6.873631697733649e-10).transl(-2.195782828980187e-08, -4e-08, 0))
hIsland = hIsland.add(rect(2.5364222930899053e-09, 1.6719643817418678e-09).transl(4.0424403946534594e-08, -4e-08, 0))
hIsland = hIsland.add(rect(6.819354020404972e-09, 4.0132324190401356e-10).transl(1.8795518238180758e-08, -4e-08, 0))
hIsland = hIsland.add(rect(7.533901573284918e-09, 9.329718572575445e-10).transl(4.387924704686963e-08, -4e-08, 0))
hIsland = hIsland.add(rect(2.7310056706026602e-09, 4.4594150869644175e-10).transl(-4.8774172437535404e-08, -3.985906651114834e-08, 0))
hIsland = hIsland.sub(rect(9.463565408026345e-09, -1.2239618665203812e-09).transl(7.870778015296712e-08, -2.6500005976750108e-08, 0))
hIsland = hIsland.sub(rect(6.112545031505382e-09, -7.058624415672459e-10).transl(-7.714905372552371e-08, -2.7988545728436884e-08, 0))
hIsland = hIsland.sub(rect(4.634446596589553e-09, -7.918140443895177e-11).transl(-7.746802587293168e-08, -2.769609031965131e-08, 0))
hIsland = hIsland.sub(rect(8.318446096852224e-09, -2.108252856508469e-09).transl(-7.761696613007206e-08, -2.7557469761035873e-08, 0))
hIsland = hIsland.add(rect(7.873954171788195e-09, 4.995532184392732e-10).transl(-7.047500058131773e-08, -3.2973157452699056e-08, 0))
hIsland = hIsland.add(rect(6.378367554359119e-09, 1.1420396874249873e-10).transl(-6.315986086467189e-08, -3.659826026629022e-08, 0))
hIsland = hIsland.sub(rect(7.2130158383570225e-09, -1.115939553221734e-09).transl(-6.919127089651611e-08, -3.3728413195999856e-08, 0))
hIsland = hIsland.sub(rect(5.7213030203038515e-09, -2.907831457836314e-09).transl(-7.015639142025332e-08, -3.316587233843231e-08, 0))
hIsland = hIsland.sub(rect(3.3451392414335113e-09, -7.238516090864691e-10).transl(-1.0995711127546379e-08, -4e-08, 0))
hIsland = hIsland.sub(rect(2.3568771084324534e-09, -8.12854700732862e-10).transl(-5.454096258396907e-08, -3.90906010158426e-08, 0))
hIsland = hIsland.add(rect(2.7277714288966134e-09, 2.7131419899831855e-09).transl(9.318040296636858e-09, -4e-08, 0))
hIsland = hIsland.sub(rect(7.613307133523707e-09, -1.1916852605933867e-09).transl(-2.2210683272117303e-08, -4e-08, 0))
hIsland = hIsland.add(rect(3.848791794753738e-09, 3.358566679486044e-09).transl(8.90687206188211e-08, -8.09561932547149e-09, 0))
hIsland = hIsland.sub(rect(8.530584354240385e-09, -2.084288151344742e-09).transl(3.367026385641131e-08, -4e-08, 0))
hIsland = hIsland.add(rect(9.680497958826984e-09, 1.65713331176624e-09).transl(1.761387037610033e-08, -4e-08, 0))
hIsland = hIsland.sub(rect(8.536317514813435e-09, -1.6622225337857455e-09).transl(-6.36748351964802e-08, -3.639292326144637e-08, 0))
hIsland = hIsland.add(rect(7.461126096192784e-09, 6.101195824031454e-10).transl(7.004274300948532e-09, -4e-08, 0))
hIsland = hIsland.sub(rect(2.6837082324465283e-09, -1.6380542709154556e-09).transl(8.413350023912692e-08, -1.974792571641738e-08, 0))
hIsland = hIsland.sub(rect(3.91105832388871e-09, -4.793538319165838e-11).transl(7.231854510764687e-08, -3.1785666069280714e-08, 0))
hIsland = hIsland.sub(rect(2.85046131623407e-09, -2.250529087941432e-09).transl(-8.263759048115497e-08, -2.1925337419441108e-08, 0))
hIsland = hIsland.add(rect(6.108410101196082e-09, 3.61951805167698e-10).transl(8.537750639055026e-08, -1.7658644779589185e-08, 0))
hIsland = hIsland.add(rect(7.52603212186892e-09, 1.881400882744862e-09).transl(5.824436413986475e-08, -3.8228287048871226e-08, 0))
hIsland = hIsland.sub(rect(6.272730811520924e-09, -7.396585819183522e-10).transl(6.466320036456413e-08, -3.597923737535309e-08, 0))
hIsland = hIsland.add(rect(6.338457754115e-09, 5.684513698158697e-10).transl(-8.257252790998811e-08, -2.201333192369451e-08, 0))
hIsland = hIsland.add(rect(6.893385763317469e-09, 1.2150146602353983e-10).transl(-1.2210195734667033e-08, -4e-08, 0))
hIsland = hIsland.add(rect(9.437015932661389e-09, 3.933622539508197e-09).transl(2.8863287786443616e-08, -4e-08, 0))
hIsland = hIsland.sub(rect(5.703635117321201e-09, -1.9700532410751042e-09).transl(-6.487836008185572e-08, -3.5885698384015215e-08, 0))
hIsland = hIsland.add(rect(3.2851422822764225e-09, 1.7495710556801512e-09).transl(-5.637056641340291e-09, -4e-08, 0))
hIsland = hIsland.add(rect(5.298173575428937e-09, 1.1273624597259223e-09).transl(-5.705728587161342e-08, -3.853742751449833e-08, 0))
hIsland = hIsland.add(rect(5.687330264250013e-09, 1.345710840445789e-09).transl(6.758251708701111e-08, -3.4598564697438615e-08, 0))
hIsland = hIsland.sub(rect(9.222101053895792e-09, -1.5876600627920689e-09).transl(6.40176500549302e-08, -3.625238265968552e-08, 0))
hIsland = hIsland.add(rect(6.466763958146784e-09, 3.743931739065993e-09).transl(-4.294072874447352e-08, -4e-08, 0))
hIsland = hIsland.sub(rect(8.509924088326488e-09, -1.050077595286622e-09).transl(-6.027555113588765e-08, -3.762486740055752e-08, 0))
hIsland = hIsland.sub(rect(4.810550076143856e-09, -3.1800625978357296e-10).transl(4.032638244854412e-08, -4e-08, 0))
hIsland = hIsland.add(rect(7.755665378759684e-09, 8.910022751410695e-10).transl(8.21879207175058e-08, -2.2523443855851763e-08, 0))
hIsland = hIsland.add(rect(7.524270395965394e-09, 2.3201805970645602e-10).transl(-3.55965838612704e-08, -4e-08, 0))
hIsland = hIsland.sub(rect(2.684622695743535e-09, -2.1064595944952032e-09).transl(6.078809347361169e-08, -3.7457319033930864e-08, 0))
hIsland = hIsland.sub(rect(2.780495092997967e-09, -2.4720085427970783e-09).transl(-1.6241031743043453e-08, -4e-08, 0))
hIsland = hIsland.add(rect(2.9217933492193354e-09, 3.6626072387458496e-09).transl(8.701329871094967e-08, -1.4329669993171421e-08, 0))
hIsland = hIsland.add(rect(9.597848666006567e-09, 3.3245121659196033e-09).transl(3.60389685026895e-08, -4e-08, 0))
hIsland = hIsland.sub(rect(8.264285063601259e-09, -5.603351834661565e-09).transl(-2.3321766377129098e-08, -4e-08, 0))
hIsland = hIsland.sub(rect(8.097325448074216e-09, -2.1321531345726697e-09).transl(1.6781358778958085e-08, -4e-08, 0))
hIsland = hIsland.add(rect(3.261720150450363e-09, 1.0224107096255689e-09).transl(-4.173095477810686e-08, -4e-08, 0))
hIsland = hIsland.add(rect(3.2625456053346932e-09, 4.111876296589303e-09).transl(6.511024163276726e-08, -3.5783471530066546e-08, 0))
hIsland = hIsland.add(rect(2.7424130282368727e-09, 2.122007383373211e-09).transl(7.183797900516443e-08, -3.210750931487251e-08, 0))
hIsland = hIsland.add(rect(8.794269042625278e-09, 1.1342918946109994e-09).transl(-2.1694458982632403e-08, -4e-08, 0))
hIsland = hIsland.add(rect(8.10182840323682e-09, 3.2329314189386595e-09).transl(-8.240801304873539e-08, -2.2233607034719662e-08, 0))
hIsland = hIsland.sub(rect(6.409809518528922e-09, -2.40437755747506e-09).transl(-5.981594111381666e-08, -3.776980714777065e-08, 0))
hIsland = hIsland.add(rect(5.8749015955828586e-09, 4.1901881148140437e-10).transl(2.3867165295295155e-08, -4e-08, 0))
hIsland = hIsland.add(rect(8.778244519560341e-09, 1.6980493452736289e-09).transl(6.296239815896449e-08, -3.667517479609352e-08, 0))
hIsland = hIsland.sub(rect(6.747217717704944e-09, -1.6212423070329772e-09).transl(5.909062777079602e-08, -3.7988476059242e-08, 0))
hIsland = hIsland.sub(rect(4.353744953782846e-09, -3.77614603530479e-09).transl(-6.946684397334247e-08, -3.3570987427047115e-08, 0))
hIsland = hIsland.sub(rect(3.814435030036205e-09, -1.0530984521150664e-09).transl(7.832158753340506e-09, -4e-08, 0))
hIsland = hIsland.sub(rect(9.085772218523702e-09, -1.7117844057990357e-09).transl(-6.13377320673124e-08, -3.727061939836985e-08, 0))
hIsland = hIsland.sub(rect(8.390942033484731e-09, -8.522247744924972e-10).transl(2.1986164547797087e-08, -4e-08, 0))
hIsland = hIsland.sub(rect(6.288101029806143e-09, -3.218928652921037e-09).transl(-8.657652639391574e-08, -1.5303157502408744e-08, 0))
hIsland = hIsland.add(rect(9.94418068359119e-09, 1.591385174562664e-09).transl(-3.4710535973456796e-08, -4e-08, 0))
hIsland = hIsland.add(rect(3.874922201742666e-09, 1.0091826134865391e-10).transl(-8.421233682002651e-08, -1.962397407280465e-08, 0))
hIsland = hIsland.sub(rect(7.548995465732844e-09, -1.5521793490733473e-09).transl(8.789997051568608e-08, -1.2076874086711513e-08, 0))
hIsland = hIsland.add(rect(5.448929879703069e-09, 1.687790640618111e-10).transl(-8.348179304009257e-08, -2.0735162085255437e-08, 0))
hIsland = hIsland.sub(rect(3.295760890018688e-09, -1.616192636224039e-09).transl(-2.7240370443428713e-08, -4e-08, 0))
hIsland = hIsland.add(rect(8.282273950836231e-09, 1.0708676686412322e-09).transl(6.379672522417096e-08, -3.634330813370387e-08, 0))
hIsland = hIsland.add(rect(6.37706929886572e-09, 9.172284627558067e-10).transl(-2.9594132189237665e-08, -4e-08, 0))
hIsland = hIsland.add(rect(2.154757812005771e-09, 1.8656554115511257e-09).transl(-8.779173654234173e-08, -1.2376553977109291e-08, 0))
hIsland = hIsland.add(rect(6.803033986715012e-09, 2.5540334107177327e-10).transl(-2.158637559518803e-09, 4e-08, 0))
hIsland = hIsland.add(rect(4.477369770749907e-09, 1.301104742640891e-09).transl(1.5000389228539412e-08, 4e-08, 0))
hIsland = hIsland.add(rect(8.040821372339544e-09, 1.714296016097399e-10).transl(-6.205733464575249e-08, 3.70150168768879e-08, 0))
hIsland = hIsland.sub(rect(8.948567852557947e-09, -2.477988000066742e-09).transl(4.501230554819726e-08, 3.999999850442944e-08, 0))
hIsland = hIsland.sub(rect(6.2069013254514555e-09, -1.6028732797439994e-09).transl(4.834449405489154e-08, 3.988937155527771e-08, 0))
hIsland = hIsland.add(rect(4.425486399583454e-09, 7.782681492503148e-11).transl(-3.2209592863772956e-08, 4e-08, 0))
hIsland = hIsland.sub(rect(5.641703707503601e-09, -3.0652856281831727e-09).transl(8.83682637872147e-08, 1.0673838184837688e-08, 0))
hIsland = hIsland.sub(rect(7.808614827421226e-09, -3.0118914044484265e-10).transl(8.626545848146259e-08, 1.5954551161570213e-08, 0))
hIsland = hIsland.sub(rect(2.7141789489729753e-09, -3.49775205943476e-10).transl(-5.1789550690027e-08, 3.954209010683215e-08, 0))
hIsland = hIsland.add(rect(4.247812818515843e-09, 5.018661938264895e-10).transl(5.90074634206853e-08, 3.801276945701443e-08, 0))
hIsland = hIsland.sub(rect(2.976523757090661e-09, -7.463233585335678e-10).transl(-5.937833971512988e-08, 3.790319935196917e-08, 0))
hIsland = hIsland.add(rect(4.4840694382424395e-09, 8.284129592003157e-10).transl(-1.7844460453894832e-08, 4e-08, 0))
hIsland = hIsland.sub(rect(5.150073335498959e-09, -4.1927250130620354e-09).transl(-5.9563904182378e-08, 3.7847180118689214e-08, 0))
hIsland = hIsland.add(rect(6.65650437448553e-09, 2.0971406276755217e-09).transl(-5.877569647349476e-08, 3.8079632601922486e-08, 0))
hIsland = hIsland.sub(rect(5.30335913168082e-09, -1.1641835605230353e-09).transl(4.745673507154587e-08, 3.994034517343862e-08, 0))
hIsland = hIsland.sub(rect(5.839193123992528e-09, -1.0750827930452106e-09).transl(-8.457093555178973e-08, 1.9046735182984756e-08, 0))
hIsland = hIsland.add(rect(4.225189770336025e-09, 1.4473073898219473e-11).transl(6.429343176664347e-08, 3.613706134291264e-08, 0))
hIsland = hIsland.sub(rect(7.684982689420387e-09, -4.3664571460295525e-10).transl(3.829727729552494e-08, 4e-08, 0))
hIsland = hIsland.sub(rect(2.7189357285034168e-09, -1.065110034833279e-09).transl(-8.89222130716854e-08, 8.701999719569216e-09, 0))
hIsland = hIsland.add(rect(3.900679592703528e-09, 2.1323137113887595e-11).transl(-4.4368109921645925e-09, 4e-08, 0))
hIsland = hIsland.add(rect(9.275540509335649e-09, 3.1276687153856365e-09).transl(-3.5573667727671355e-08, 4e-08, 0))
hIsland = hIsland.add(rect(5.7667965770170565e-09, 1.0487084653659088e-09).transl(4.0277854794913804e-08, 4e-08, 0))
hIsland = hIsland.sub(rect(5.654115615518031e-09, -3.8181411702737427e-11).transl(-1.8330889333074122e-08, 4e-08, 0))
hIsland = hIsland.sub(rect(2.8585130367982024e-09, -2.2108110682032805e-10).transl(2.90944762224936e-08, 4e-08, 0))
hIsland = hIsland.sub(rect(2.942024208627567e-09, -7.104567289863257e-10).transl(-3.9617919009531306e-08, 4e-08, 0))
hIsland = hIsland.add(rect(2.2034415113212307e-09, 3.1725755703018496e-10).transl(3.290074224454577e-08, 4e-08, 0))
hIsland = hIsland.add(rect(2.8104931979811003e-09, 1.3327321122631286e-09).transl(3.570274868346646e-08, 4e-08, 0))
hIsland = hIsland.sub(rect(7.498873642851259e-09, -1.708380321094416e-09).transl(-2.832940656761796e-08, 4e-08, 0))
hIsland = hIsland.sub(rect(2.4895715908214424e-09, -1.3591163433561788e-09).transl(-6.42384613534177e-08, 3.6160209818609597e-08, 0))
hIsland = hIsland.add(rect(2.1315720652077215e-09, 4.138549338092281e-09).transl(6.114593197581266e-08, 3.733660176838285e-08, 0))
hIsland = hIsland.add(rect(2.0848101702511077e-09, 3.5573885810217283e-09).transl(-9.022951732548102e-09, 4e-08, 0))
hIsland = hIsland.add(rect(9.852461817890217e-09, 3.1907057049685086e-09).transl(-1.9663879199579618e-08, 4e-08, 0))
hIsland = hIsland.sub(rect(8.335072357603e-09, -2.621057817720058e-10).transl(-4.509812099297167e-08, 3.999990491120291e-08, 0))
hIsland = hIsland.sub(rect(3.6576481245121503e-09, -4.0810930457607196e-10).transl(-1.9726460478770645e-08, 4e-08, 0))
hIsland = hIsland.sub(rect(9.127163080840008e-09, -1.066810231833539e-09).transl(4.22504936702903e-08, 4e-08, 0))
hIsland = hIsland.add(rect(8.024849105116604e-09, 1.564933938270269e-10).transl(2.6488146537435277e-08, 4e-08, 0))
hIsland = hIsland.add(rect(4.727943241498082e-09, 3.177508168721088e-09).transl(-5.355597973569565e-08, 3.927033459080745e-08, 0))
hIsland = hIsland.add(rect(2.1926280642928947e-09, 1.25637283906337e-09).transl(7.921897197570037e-08, 2.5977189719434503e-08, 0))
hIsland = hIsland.sub(rect(9.387272780252083e-09, -3.288283406875081e-09).transl(-6.556651388018555e-09, 4e-08, 0))
hIsland = hIsland.add(rect(5.455313484125368e-09, 2.3610573194342235e-09).transl(-2.1543295583397285e-08, 4e-08, 0))
hIsland = hIsland.add(rect(5.066936041435217e-09, 1.954224612109392e-09).transl(6.843358463677024e-08, 3.4148458582526524e-08, 0))
hIsland = hIsland.sub(rect(5.728287573989153e-09, -1.047873344031442e-09).transl(-7.601095095798968e-08, 2.898542394938971e-08, 0))
hIsland = hIsland.add(rect(2.3605246868431877e-09, 2.8063341925863767e-09).transl(-3.884671421183969e-08, 4e-08, 0))
hIsland = hIsland.add(rect(5.800681008530777e-09, 3.1725207950655965e-10).transl(8.33777437527669e-08, 2.0886974559033154e-08, 0))
hIsland = hIsland.add(rect(5.84885736868192e-09, 9.920529056556605e-10).transl(8.442627296288058e-08, 1.9282313272553293e-08, 0))
hIsland = hIsland.add(rect(6.611914021969232e-09, 1.3778663428313548e-09).transl(4.832233771962837e-08, 3.989083446399021e-08, 0))
hIsland = hIsland.add(rect(9.958504357975517e-09, 1.1825905892249292e-09).transl(-2.436922204912866e-09, 4e-08, 0))
hIsland = hIsland.sub(rect(9.695283619574236e-09, -1.3076213298899045e-09).transl(6.352634529954353e-08, 3.6452839464991065e-08, 0))
hIsland = hIsland.sub(rect(7.815166271704503e-09, -7.788491788412318e-10).transl(4.410702732126835e-08, 4e-08, 0))
hIsland = hIsland.add(rect(7.990357055897352e-09, 1.7542404413992234e-09).transl(1.966330704114203e-08, 4e-08, 0))
hIsland = hIsland.sub(rect(5.440252611009826e-09, -1.5498301168250574e-10).transl(3.234881282000995e-08, 4e-08, 0))
hIsland = hIsland.add(rect(4.852968615336783e-09, 7.169323349313732e-10).transl(-1.3296114719334332e-08, 4e-08, 0))
hIsland = hIsland.sub(rect(2.380798574174395e-09, -1.89676831350752e-09).transl(-4.911719457638794e-08, 3.983222799713732e-08, 0))
hIsland = hIsland.add(rect(2.537958448531118e-09, 2.137817272572205e-09).transl(8.612506959712297e-08, 1.6238436965025166e-08, 0))
hIsland = hIsland.sub(rect(7.148710250955859e-09, -9.627748016769272e-10).transl(-5.9180359197048606e-08, 3.796208544446658e-08, 0))
hIsland = hIsland.sub(rect(8.413897441647024e-09, -7.73321521294102e-10).transl(-2.3749216877691304e-08, 4e-08, 0))
hIsland = hIsland.sub(rect(7.416670945258579e-09, -1.2265489627837605e-09).transl(3.941912980838999e-08, 4e-08, 0))
hIsland = hIsland.add(rect(7.900200684050114e-09, 1.9292332826870926e-09).transl(-5.9019627678365426e-08, 3.800922606398633e-08, 0))
hIsland = hIsland.sub(rect(7.786737432949232e-09, -2.9586374875290546e-09).transl(-6.246089771511356e-08, 3.686603898448816e-08, 0))
hIsland = hIsland.add(rect(5.575042121768442e-09, 3.163765224443437e-09).transl(-2.7804146130437306e-09, 4e-08, 0))
hIsland = hIsland.sub(rect(3.4685571089091767e-09, -1.89213414754788e-09).transl(7.483620737267433e-08, 2.994382532762272e-08, 0))
hIsland = hIsland.add(rect(5.116070465069976e-09, 1.3206317738216795e-09).transl(8.403378763970429e-09, 4e-08, 0))
hIsland = hIsland.add(rect(6.0283684710177464e-09, 8.590284714069945e-10).transl(-1.7289956458993327e-09, 4e-08, 0))
hIsland = hIsland.add(rect(7.74471458305972e-09, 3.365936457051609e-09).transl(3.32335886204329e-08, 4e-08, 0))
hIsland = hIsland.sub(rect(9.153426624929116e-09, -6.244087048176832e-10).transl(5.8159735410635807e-08, 3.825137249066886e-08, 0))
hIsland = hIsland.sub(rect(5.6697726657915595e-09, -7.643577628006149e-10).transl(8.674189503355308e-08, 1.4943229498941803e-08, 0))
hIsland = hIsland.sub(rect(2.1781749351066032e-09, -3.393656012761231e-09).transl(-3.6905231817953925e-08, 4e-08, 0))
hIsland = hIsland.add(rect(3.246015382156307e-09, 1.7987879281188528e-11).transl(-8.829084214448143e-08, 1.0919340148167424e-08, 0))
hIsland = hIsland.sub(rect(6.3173396915310365e-09, -1.6234814622859306e-10).transl(3.94220127004709e-08, 4e-08, 0))
hIsland = hIsland.add(rect(7.086648835406385e-09, 1.880879394919319e-10).transl(-3.1864731378305076e-08, 4e-08, 0))
hIsland = hIsland.sub(rect(6.779642473123832e-09, -7.751117600026598e-10).transl(3.1371855690791686e-08, 4e-08, 0))
hIsland = hIsland.sub(rect(7.4194265932608475e-09, -2.020345443386675e-09).transl(1.2336475221577745e-09, 4e-08, 0))
hIsland = hIsland.add(rect(9.953937836289968e-09, 1.4768287834092163e-09).transl(3.9509825885823895e-08, 4e-08, 0))
hIsland = hIsland.add(rect(9.412658522620366e-09, 4.5532363112803124e-10).transl(-6.687318523924613e-08, 3.4956777742166965e-08, 0))
hIsland = hIsland.sub(rect(3.0024881314855645e-09, -1.6210259370532446e-09).transl(-8.322510085460314e-08, 2.1106978115301987e-08, 0))
hIsland = hIsland.sub(rect(7.995907455295286e-09, -8.781578748565941e-10).transl(6.0144070125138e-08, 3.7666839882078585e-08, 0))
hIsland = hIsland.sub(rect(8.564854211902183e-09, -5.85533754198229e-10).transl(-3.3509759482213726e-08, 4e-08, 0))
hIsland = hIsland.add(rect(6.190817453522362e-09, 7.268208050708656e-10).transl(-2.0754837897758912e-09, 4e-08, 0))
hIsland = hIsland.sub(rect(2.2814449391617124e-09, -4.981172414599108e-10).transl(2.712318401354148e-08, 4e-08, 0))
hIsland = hIsland.sub(rect(8.598732381715377e-09, -4.32652414026863e-09).transl(5.090760492049266e-09, 4e-08, 0))
hIsland = hIsland.sub(rect(6.53195585636343e-09, -2.0363269775707256e-09).transl(6.929913958291226e-08, 3.366709134200974e-08, 0))
hIsland = hIsland.sub(rect(3.230966553454276e-09, -1.183175270047827e-09).transl(5.719852488120279e-09, 4e-08, 0))
hIsland = hIsland.add(rect(9.124482993827872e-09, 8.454305124431855e-10).transl(7.872228283178699e-08, 2.6485423197785602e-08, 0))
hIsland = hIsland.sub(rect(9.310474992426046e-09, -1.6413035440964883e-09).transl(-6.590027725104333e-08, 3.542396104283181e-08, 0))
hIsland = hIsland.add(rect(3.740207409791078e-09, 2.9455788020784705e-10).transl(4.9054989577008106e-08, 3.983726957305596e-08, 0))
hIsland = hIsland.add(rect(9.318387197944116e-09, 6.290241059737356e-11).transl(-1.6052773098987277e-08, 4e-08, 0))
hIsland = hIsland.add(rect(5.789361421260888e-09, 1.1634433662931524e-09).transl(-7.820355390548624e-08, 2.699829361661153e-08, 0))
hIsland = hIsland.sub(rect(8.57025408646801e-09, -6.881063014539148e-10).transl(1.8086076703438633e-09, 4e-08, 0))
hIsland = hIsland.add(rect(2.1306705797229546e-09, 2.7722179687205514e-09).transl(4.924325669653016e-08, 3.9821773535243615e-08, 0))
hIsland = hIsland.sub(rect(9.097373531738669e-09, -2.044078595758673e-09).transl(-6.287594547438905e-08, 3.670853446321271e-08, 0))
hIsland = hIsland.add(rect(2.9977566320461593e-09, 5.717330903541398e-10).transl(4.8869130529556006e-08, 3.9851872185601116e-08, 0))
hIsland = hIsland.add(rect(7.1728333683899536e-09, 2.259144346991415e-09).transl(-2.4580114668778452e-08, 4e-08, 0))
hIsland = hIsland.add(rect(9.96583283917805e-09, 2.6623582022483425e-10).transl(-7.793139819979585e-08, 2.7260397904493162e-08, 0))
hIsland = hIsland.add(rect(6.250058539041066e-09, 2.301927968366886e-09).transl(-6.666845484951995e-10, 4e-08, 0))
hIsland = hIsland.sub(rect(7.3968585890187965e-09, -1.0272162630801408e-09).transl(1.3063617898919701e-09, 4e-08, 0))
hIsland = hIsland.sub(rect(6.417931212312154e-09, -8.131716824700416e-10).transl(-5.59083640780205e-08, 3.880697499369242e-08, 0))
hIsland = hIsland.sub(rect(7.746642461783467e-09, -3.2534891431748197e-09).transl(3.825038533326745e-08, 4e-08, 0))
hIsland = hIsland.add(rect(8.53798140135508e-09, 1.5085705326033286e-09).transl(-1.0268369773375847e-09, 4e-08, 0))
hIsland = hIsland.sub(rect(7.445442362893187e-09, -2.7630394709579086e-09).transl(-1.4624556981568505e-08, 4e-08, 0))
hIsland = hIsland.sub(rect(3.124337516849009e-09, -3.1908737424946633e-09).transl(-3.285129728822131e-08, 4e-08, 0))
hIsland = hIsland.add(rect(8.296678881443609e-09, 8.932487021591846e-10).transl(-1.964896262877663e-08, 4e-08, 0))
hIsland = hIsland.add(rect(3.6995728628591947e-09, 2.768859446600354e-09).transl(1.8059318120160496e-08, 4e-08, 0))
hIsland = hIsland.sub(rect(5.041657000686085e-09, -1.558019759508279e-09).transl(5.569295447786379e-08, 3.885431580175089e-08, 0))
hIsland = hIsland.sub(rect(2.1471976385196536e-09, -1.0686036466661291e-09).transl(4.9915870950819563e-08, 3.976060920908334e-08, 0))
hIsland = hIsland.sub(rect(6.9080198914525e-09, -8.209819559080659e-10).transl(-2.7794557573967206e-08, 4e-08, 0))
hIsland = hIsland.add(rect(8.095701528522492e-09, 6.783978925287351e-10).transl(4.12141983155492e-08, 4e-08, 0))
hIsland = hIsland.sub(rect(7.89927618773771e-09, -1.6555351435168482e-09).transl(-1.168505268367807e-08, 4e-08, 0))
hIsland = hIsland.add(rect(2.52398646596469e-09, 1.744597303556881e-09).transl(2.5271060334506064e-08, 4e-08, 0))
hIsland = hIsland.add(rect(9.450738861607104e-09, 2.2956501876712647e-10).transl(-5.424539806524163e-08, 3.9146676905995495e-08, 0))
hIsland = hIsland.sub(rect(9.592185773819691e-09, -8.612044115680215e-10).transl(7.304624145718371e-08, 3.128091236868837e-08, 0))
hIsland = hIsland.sub(rect(2.1967721401238613e-09, -2.1021492892695575e-09).transl(8.060335502458573e-08, 2.446304118450344e-08, 0))
hIsland = hIsland.sub(rect(8.541478366648563e-09, -3.226578404256542e-09).transl(8.048204999582769e-08, 2.46019030173266e-08, 0))
hIsland = hIsland.add(rect(7.409735708971844e-09, 2.3032218284064592e-09).transl(-6.857990973956015e-09, 4e-08, 0))
hIsland = hIsland.add(rect(3.620469892351379e-09, 1.2722971625637448e-09).transl(-3.691011643384023e-08, 4e-08, 0))
hIsland = hIsland.sub(rect(6.0134197245180565e-09, -7.836503315649503e-10).transl(-3.188846096273184e-08, 4e-08, 0))
hIsland = hIsland.add(rect(8.094299254042096e-09, 2.3280554572216827e-09).transl(7.188988378319183e-08, 3.207317744176608e-08, 0))
hIsland = hIsland.sub(rect(5.25338450293338e-09, -1.1397573334316476e-09).transl(7.215860215723503e-08, 3.1893778379962234e-08, 0))
hIsland = hIsland.sub(rect(7.863731250936277e-09, -6.528872921924774e-10).transl(-4.613501813407731e-08, 3.998727435928453e-08, 0))
hIsland = hIsland.sub(rect(3.507890863890972e-09, -1.8106521943452852e-09).transl(-7.743119521649239e-08, 2.7730164731094532e-08, 0))
hIsland = hIsland.sub(rect(3.544835405282374e-09, -4.4885072407790975e-10).transl(-5.658078329571726e-08, 3.865272247426694e-08, 0))
hIsland = hIsland.sub(rect(7.222908890247979e-09, -6.692587723315425e-10).transl(-4.32467539751742e-08, 4e-08, 0))
hIsland = hIsland.add(rect(9.398842095278312e-09, 1.2804794029640443e-09).transl(-6.616315218692518e-08, 3.5300429006037683e-08, 0))
hIsland = hIsland.add(rect(9.296120771854681e-09, 1.279280943634136e-09).transl(-5.175951914615097e-08, 3.9546155196740636e-08, 0))
hIsland = hIsland.sub(rect(5.099989214504425e-09, -1.6841455790810863e-09).transl(1.8254718847910774e-08, 4e-08, 0))
hIsland = hIsland.add(rect(8.162744532944008e-09, 1.9250102447894336e-09).transl(8.79756761875069e-08, 1.1862296531187382e-08, 0))
hIsland = hIsland.sub(rect(9.492856125032401e-09, -1.6695579923405232e-09).transl(-6.755394157086919e-08, 3.461328904428849e-08, 0))
hIsland = hIsland.sub(rect(4.232868189367856e-09, -4.8874642979740446e-09).transl(5.638070443082914e-08, 3.869964944909641e-08, 0))
hIsland = hIsland.sub(rect(5.351882698735735e-09, -2.964927599189939e-09).transl(2.0995683395355725e-09, 4e-08, 0))
hIsland = hIsland.add(rect(4.278982132799562e-09, 2.8361086556347155e-09).transl(-3.183428982016737e-08, 4e-08, 0))
hIsland = hIsland.sub(rect(6.732448732249575e-09, -9.319060033393957e-10).transl(4.550858280811166e-08, 3.999744528658879e-08, 0))
hIsland = hIsland.add(rect(9.506446371487232e-09, 3.1815537226119163e-09).transl(-5.177116391562587e-08, 3.954458114155988e-08, 0))
hIsland = hIsland.add(rect(4.3900143610693065e-09, 1.2019144805418262e-09).transl(-2.7072019694607206e-09, 4e-08, 0))
hIsland = hIsland.add(rect(4.5183355828212485e-09, 1.8062417406949308e-09).transl(-1.7578509111511643e-08, 4e-08, 0))
hIsland = hIsland.add(rect(8.260480812326164e-09, 1.883068741437213e-09).transl(1.4072380913652443e-08, 4e-08, 0))
hIsland = hIsland.add(rect(5.6914165455307604e-09, 2.840027285449711e-09).transl(1.77564217693529e-08, 4e-08, 0))
hIsland = hIsland.add(rect(9.229319503308883e-09, 9.705406892054161e-10).transl(-7.528727394788483e-08, 2.9583859954743033e-08, 0))
hIsland = hIsland.sub(rect(2.3448245378577326e-09, -3.5178956935097683e-09).transl(-1.5695490693420796e-08, 4e-08, 0))
hIsland = hIsland.sub(rect(5.394413255335904e-09, -2.625092923978179e-09).transl(-4.078197301410337e-08, 4e-08, 0))
hIsland = hIsland.sub(rect(8.488774108469552e-09, -5.641639439652274e-10).transl(-7.401015606730437e-08, 3.057843468222865e-08, 0))
hIsland = hIsland.sub(rect(6.317048480795465e-09, -1.2643481864019075e-09).transl(-2.0209224646313017e-08, 4e-08, 0))
hIsland = hIsland.add(rect(5.310877457039751e-09, 1.0819839695025292e-09).transl(-7.36064907864175e-08, 3.087745508462447e-08, 0))
hIsland = hIsland.sub(rect(2.977172531526418e-09, -3.4614171372014515e-10).transl(-3.2871268021010305e-08, 4e-08, 0))
hIsland = hIsland.sub(rect(3.980162587995422e-09, -1.1325808417216092e-09).transl(-1.8217030105446258e-08, 4e-08, 0))
hIsland = hIsland.sub(rect(6.345385371563994e-09, -1.2116405243888757e-10).transl(-8.140918027977776e-08, 2.3507230788460385e-08, 0))
hIsland = hIsland.add(rect(3.0866968086675367e-09, 5.366782841205903e-10).transl(-6.516253214242953e-08, 3.576021429610159e-08, 0))
hIsland = hIsland.add(rect(8.900110937588344e-09, 6.361463511263285e-10).transl(6.629116591862969e-08, 3.523955413824117e-08, 0))
hIsland = hIsland.add(rect(2.528025319115878e-09, 3.633366405611113e-09).transl(2.2312726312128406e-08, 4e-08, 0))
hIsland = hIsland.sub(rect(9.043633641271487e-09, -2.4692045889627503e-09).transl(5.108531313262062e-08, 3.963257384890306e-08, 0))
hIsland = hIsland.sub(rect(8.69807997951323e-09, -7.994538149409753e-10).transl(3.112379360914991e-08, 4e-08, 0))
hIsland = hIsland.sub(rect(6.093026733891155e-09, -1.4013070521460211e-09).transl(9.200525541957913e-10, 4e-08, 0))
hIsland = hIsland.add(rect(9.255596231025792e-09, 1.546082042218889e-09).transl(5.421757240095853e-08, 3.915186118561605e-08, 0))
hIsland = hIsland.add(rect(7.434081033579115e-09, 8.891865179690968e-11).transl(1.71797689845834e-08, 4e-08, 0))
hIsland = hIsland.sub(rect(6.1146231981983935e-09, -1.7282559464871653e-09).transl(-5.5788360106265946e-08, 3.8833471994335486e-08, 0))
hIsland = hIsland.add(rect(3.4661536454067967e-09, 8.558477103888657e-10).transl(-8.99275475025115e-08, 2.2689270489029424e-09, 0))
hIsland = hIsland.sub(rect(5.712010843723877e-09, -1.2549629906428408e-09).transl(-4.630551979729095e-08, 3.9983163054578274e-08, 0))
hIsland = hIsland.add(rect(8.186587434491167e-09, 9.496023742331292e-10).transl(5.1243747768650015e-08, 3.961309785936947e-08, 0))
hIsland = hIsland.add(rect(5.175784274852562e-09, 1.890387958125829e-09).transl(-7.809675727095637e-08, 2.7101705591043946e-08, 0))
hIsland = hIsland.sub(rect(9.731139081816334e-09, -1.8049019709002534e-10).transl(2.017146340258166e-08, 4e-08, 0))
hIsland = hIsland.add(rect(9.496745977404699e-09, 4.19232645583871e-10).transl(4.483229261386962e-08, 4e-08, 0))
hIsland = hIsland.add(rect(9.292251099244397e-09, 6.417310097672413e-10).transl(-6.529904786389628e-08, 3.5699139591324714e-08, 0))
hIsland = hIsland.sub(rect(9.779524394228322e-09, -1.047733784637809e-09).transl(4.4568955214133426e-08, 4e-08, 0))
hIsland = hIsland.sub(rect(9.325442729334484e-09, -8.664956186951959e-10).transl(-7.020392564810685e-08, 3.313734539446932e-08, 0))
hIsland = hIsland.sub(rect(2.4931696327441078e-09, -1.5685088982432943e-09).transl(-3.6602049023886135e-08, 4e-08, 0))
hIsland = hIsland.add(rect(3.579310674576424e-09, 1.5566265826490276e-09).transl(-3.9629471377757555e-08, 4e-08, 0))
hIsland = hIsland.sub(rect(2.846691879480508e-09, -1.5179320260722378e-09).transl(6.751174169191931e-08, 3.463498821550884e-08, 0))
hIsland = hIsland.sub(rect(8.351822434987993e-09, -3.369558078772068e-09).transl(2.9263552466801663e-08, 4e-08, 0))
hIsland = hIsland.sub(rect(8.929484526770588e-09, -1.234053544868825e-10).transl(3.349601755379176e-08, 4e-08, 0))
hIsland = hIsland.add(rect(9.239709494452434e-09, 3.0810492422498545e-10).transl(-6.88702446809102e-08, 3.39086519437263e-08, 0))
hIsland = hIsland.sub(rect(9.384136971006663e-09, -9.543535117326057e-10).transl(-3.9236884789092504e-08, 4e-08, 0))
hIsland = hIsland.add(rect(3.035871858732791e-09, 9.658134041171726e-10).transl(7.641248050903197e-08, 2.8641761008963252e-08, 0))
hIsland = hIsland.sub(rect(3.5476638577376126e-09, -4.682531747382257e-10).transl(-6.837595528426285e-08, 3.417965276808238e-08, 0))
hIsland = hIsland.add(rect(4.076519750584365e-09, 1.829144520819603e-09).transl(-2.1196599987639334e-09, 4e-08, 0))
hIsland = hIsland.add(rect(7.576448697393653e-09, 4.808408023058034e-10).transl(2.0872693017199192e-08, 4e-08, 0))
hIsland = hIsland.add(rect(9.318810284141809e-09, 2.1338827796091523e-09).transl(5.601323653832575e-08, 3.8783563996967495e-08, 0))
hIsland = hIsland.add(rect(3.862993598646451e-09, 2.410803950794031e-09).transl(-5.3512910716865816e-08, 3.927772944710322e-08, 0))
hIsland = hIsland.add(rect(4.2791626215785245e-09, 4.301258128533589e-10).transl(1.0781272427040809e-08, 4e-08, 0))
hIsland = hIsland.sub(rect(2.9309790538205622e-09, -1.6003449859172198e-10).transl(-8.894462135670477e-08, 8.612147782913625e-09, 0))
hIsland = hIsland.sub(rect(8.821402100519713e-09, -7.138603437705787e-10).transl(-2.227763922970825e-08, 4e-08, 0))
hIsland = hIsland.sub(rect(6.598249036872752e-09, -4.204436481586053e-09).transl(-1.48582763031504e-09, 4e-08, 0))
hIsland = hIsland.sub(rect(9.212086730172107e-09, -1.6255562065875543e-09).transl(7.466059615512516e-08, 3.0081358463185744e-08, 0))
hIsland = hIsland.add(rect(4.653508400892492e-09, 3.2532176043334943e-09).transl(-1.6728447370499407e-08, 4e-08, 0))
hIsland = hIsland.sub(rect(8.733133314589673e-09, -1.0650689750763647e-09).transl(-3.2992163619655096e-08, 4e-08, 0))
hIsland = hIsland.sub(rect(7.853675465164334e-09, -2.2389552539327022e-10).transl(5.552025520751347e-08, 3.889154764619271e-08, 0))
hIsland = hIsland.add(rect(3.542218875101e-09, 2.786686152050628e-09).transl(-2.3537699577789736e-08, 4e-08, 0))
hIsland = hIsland.sub(rect(4.78381161051533e-09, -1.931113489868071e-09).transl(8.280848216670774e-09, 4e-08, 0))
hIsland = hIsland.add(rect(6.227084086016803e-09, 5.045321431982911e-10).transl(-8.767454549138872e-08, 1.2692236712772626e-08, 0))
hIsland = hIsland.add(rect(2.4976884418527654e-09, 8.475896352317368e-10).transl(5.3294453942004613e-08, 3.931464247744164e-08, 0))
hIsland = hIsland.sub(rect(5.44523067930405e-09, -3.878283588407116e-10).transl(-1.5556887532856303e-08, 4e-08, 0))
hIsland = hIsland.sub(rect(6.315856818494824e-09, -3.728018944097513e-09).transl(-4.876305147937308e-08, 3.985989729287308e-08, 0))
hIsland = hIsland.add(rect(5.680084904888373e-09, 1.7544165945446074e-09).transl(3.7032809508407816e-08, 4e-08, 0))
hIsland = hIsland.sub(rect(9.962856863178972e-09, -8.458698799239759e-10).transl(5.179608007752365e-08, 3.954120384416534e-08, 0))
hIsland = hIsland.add(rect(4.16447651453684e-09, 2.825498333335614e-10).transl(3.172362114266232e-08, 4e-08, 0))
hIsland = hIsland.sub(rect(7.665569763469515e-09, -8.218054637261551e-10).transl(-8.785463671731491e-08, 1.220338303475356e-08, 0))
hIsland = hIsland.add(rect(3.3741296013788303e-09, 1.340005368529301e-09).transl(2.0165715248768106e-08, 4e-08, 0))
hIsland = hIsland.add(rect(8.161248268708246e-09, 7.827814237615967e-10).transl(-5.295660588440038e-08, 3.936977518683572e-08, 0))
hIsland = hIsland.sub(rect(5.0972114241061594e-09, -1.161911968617556e-09).transl(8.940307318822051e-08, 6.493580735512511e-09, 0))
hIsland = hIsland.add(rect(9.87063051628478e-09, 7.931956214245824e-10).transl(8.710796248450913e-08, 1.4108419562118878e-08, 0))
hIsland = hIsland.add(rect(8.932535251540298e-09, 7.245935609863965e-10).transl(4.863791960803494e-08, 3.9869075026231656e-08, 0))
hIsland = hIsland.sub(rect(2.44451490663009e-09, -2.1140245123765785e-09).transl(6.164187118990598e-08, 3.716414704814521e-08, 0))
hIsland = hIsland.add(rect(2.9652991067558965e-09, 8.397118076505072e-11).transl(4.569915693760171e-08, 3.999517185257886e-08, 0))
vIsland = hIsland.rotz(pi / 2)
hIslands = hIslands.add(hIsland.transl(-a/2, a, 0))
hIsland = rect(islandLength-2*ellipseConstant, islandWidth)
hIsland = hIsland.add(ellipse(ellipseConstant*2, islandWidth).transl(islandLength/2-ellipseConstant, 0, 0))
hIsland = hIsland.add(ellipse(ellipseConstant*2, islandWidth).transl(-islandLength/2+ellipseConstant, 0, 0))
hIsland = hIsland.sub(rect(2.414121921692221e-09, -1.4868501541292152e-09).transl(-6.051516991130062e-08, -3.754731799333503e-08, 0))
hIsland = hIsland.add(rect(6.7795832483388465e-09, 3.50272614292102e-09).transl(-7.692334263229517e-08, -2.819193748933088e-08, 0))
hIsland = hIsland.sub(rect(7.248429795517843e-09, -8.299830910620516e-10).transl(-6.989310637936581e-08, -3.332246643352343e-08, 0))
hIsland = hIsland.add(rect(9.532560762263689e-09, 8.361516562350686e-10).transl(-6.33600027355391e-08, -3.651927601463214e-08, 0))
hIsland = hIsland.sub(rect(6.369255694224708e-09, -3.246345172155862e-09).transl(-1.310258560590637e-08, -4e-08, 0))
hIsland = hIsland.sub(rect(4.321449127645252e-09, -3.5380855995220446e-10).transl(6.264592536646699e-08, -3.67963639423334e-08, 0))
hIsland = hIsland.sub(rect(7.847184776012336e-09, -1.0865497337564898e-09).transl(8.815201609126575e-08, -1.134521406932583e-08, 0))
hIsland = hIsland.sub(rect(8.387446581724387e-09, -1.5157648079055624e-09).transl(4.628103698018199e-08, -3.99837887569737e-08, 0))
hIsland = hIsland.sub(rect(2.9095198029309917e-09, -2.581861626561864e-09).transl(-2.6542143415949918e-08, -4e-08, 0))
hIsland = hIsland.add(rect(5.855539142582031e-09, 4.1216563449215446e-10).transl(1.0943230710383062e-08, -4e-08, 0))
hIsland = hIsland.sub(rect(7.650760821722484e-09, -1.3570823649244372e-09).transl(5.390474215959315e-08, -3.920902458044648e-08, 0))
hIsland = hIsland.sub(rect(2.3063135650364093e-09, -3.016673574570929e-10).transl(1.4787531990645073e-08, -4e-08, 0))
hIsland = hIsland.add(rect(3.890030367894685e-09, 2.7591371091965696e-09).transl(-6.483704690172247e-08, -3.5903756895139466e-08, 0))
hIsland = hIsland.sub(rect(7.773705078216089e-09, -3.5943926846901595e-09).transl(-5.333607086991844e-08, -3.9307687030845777e-08, 0))
hIsland = hIsland.add(rect(8.047979265204752e-09, 3.4545870224006346e-09).transl(-6.484330975882389e-08, -3.590102232118143e-08, 0))
hIsland = hIsland.add(rect(4.089787840467627e-09, 8.201661740324882e-10).transl(7.412010900787397e-08, -3.049574592628655e-08, 0))
hIsland = hIsland.sub(rect(9.889549422878838e-09, -2.39999589635339e-09).transl(2.4463461595232727e-08, -4e-08, 0))
hIsland = hIsland.sub(rect(3.75563880883718e-09, -5.243856141792356e-10).transl(5.6159725302280466e-08, -3.8750463795769876e-08, 0))
hIsland = hIsland.add(rect(5.425743144062131e-09, 3.2886229982408484e-10).transl(3.8545174966350245e-08, -4e-08, 0))
hIsland = hIsland.add(rect(3.857484269796674e-09, 9.005628366493968e-10).transl(5.5328382989140155e-08, -3.893216137078954e-08, 0))
hIsland = hIsland.add(rect(8.498080660980887e-09, 3.1210327031304005e-09).transl(5.6398222595607136e-08, -3.869557562138613e-08, 0))
hIsland = hIsland.add(rect(3.4047941732104347e-09, 2.3744509251954567e-09).transl(-5.188460755515293e-09, -4e-08, 0))
hIsland = hIsland.add(rect(2.547594866712632e-09, 2.477333726686344e-09).transl(-5.075373513404213e-08, -3.967168503090012e-08, 0))
hIsland = hIsland.add(rect(9.590212699901016e-09, 3.5576985623807455e-10).transl(-3.347045005065223e-08, -4e-08, 0))
hIsland = hIsland.sub(rect(9.917716176255902e-09, -2.2766724455755202e-09).transl(7.89527379554483e-08, -2.625175866208349e-08, 0))
hIsland = hIsland.add(rect(5.1284519599847506e-09, 3.1998283516255963e-10).transl(1.751322830534189e-08, -4e-08, 0))
hIsland = hIsland.add(rect(7.44807957923551e-09, 4.605350944460457e-09).transl(-1.53370777044203e-08, -4e-08, 0))
hIsland = hIsland.sub(rect(5.162548942957064e-09, -4.2341123746218804e-10).transl(-8.657128582202125e-08, -1.5314402358179068e-08, 0))
hIsland = hIsland.add(rect(4.340264549970506e-09, 3.933299674358542e-09).transl(-1.5791797548262422e-08, -4e-08, 0))
hIsland = hIsland.add(rect(3.372067230104313e-09, 3.8985925491823405e-10).transl(-1.0748439528415233e-08, -4e-08, 0))
hIsland = hIsland.add(rect(8.961783118268581e-09, 1.056351520895581e-09).transl(6.948403068206499e-08, -3.3561085537671814e-08, 0))
hIsland = hIsland.sub(rect(3.487456270898517e-09, -2.6679076326839427e-09).transl(8.291631993548952e-09, -4e-08, 0))
hIsland = hIsland.sub(rect(7.177620388453961e-09, -1.5378352393906123e-09).transl(2.3387398458898493e-08, -4e-08, 0))
hIsland = hIsland.add(rect(4.989342337990959e-09, 2.2075316234125563e-09).transl(-4.662889615401368e-08, -3.997378595172247e-08, 0))
hIsland = hIsland.add(rect(7.262279102568914e-09, 7.346261940260316e-10).transl(-8.261409445903127e-08, -2.1957173094298747e-08, 0))
hIsland = hIsland.add(rect(7.256464416920595e-09, 9.037330135231337e-10).transl(-7.740235802584133e-09, -4e-08, 0))
hIsland = hIsland.add(rect(8.328550156644986e-09, 9.474661752831637e-11).transl(4.215227927734871e-08, -4e-08, 0))
hIsland = hIsland.add(rect(7.0078960115852465e-09, 1.0556674608836148e-09).transl(8.886115594364499e-08, -8.94201896332973e-09, 0))
hIsland = hIsland.add(rect(2.66723244891075e-09, 2.298770800005407e-10).transl(3.0579660193739395e-08, -4e-08, 0))
hIsland = hIsland.add(rect(8.403609247606752e-09, 2.7323342154702866e-09).transl(5.6037333191616274e-08, -3.8778151170616136e-08, 0))
hIsland = hIsland.add(rect(5.589652382957056e-09, 2.489425845585533e-09).transl(-2.290123866572784e-08, -4e-08, 0))
hIsland = hIsland.sub(rect(3.808140802208527e-09, -3.2097919305163005e-09).transl(7.441912070951899e-08, -3.0268139454181506e-08, 0))
hIsland = hIsland.add(rect(7.87642660948778e-09, 2.7330641950544337e-09).transl(6.939163996442288e-08, -3.361419923189832e-08, 0))
hIsland = hIsland.sub(rect(3.4237359009518855e-09, -1.0488544894478206e-09).transl(-2.592818893319932e-08, -4e-08, 0))
hIsland = hIsland.add(rect(2.5540213836769148e-09, 3.882524376434107e-10).transl(-7.927090252775573e-08, -2.5923042649234442e-08, 0))
hIsland = hIsland.sub(rect(7.793166628128168e-09, -2.040193483565426e-09).transl(4.7058756869047135e-08, -3.995811654285851e-08, 0))
hIsland = hIsland.sub(rect(7.114907747826566e-09, -1.129625139327992e-09).transl(-7.914530878458996e-08, -2.605366371533202e-08, 0))
hIsland = hIsland.sub(rect(9.388419847597335e-09, -1.2340348581213951e-09).transl(4.4669774084057237e-08, -4e-08, 0))
hIsland = hIsland.sub(rect(3.4746816998606767e-09, -4.934612930964565e-10).transl(-8.488562408170241e-08, -1.852084826712385e-08, 0))
hIsland = hIsland.add(rect(8.298623240808682e-09, 3.4459292484713926e-09).transl(7.1064115217468245e-09, -4e-08, 0))
hIsland = hIsland.add(rect(8.342317218034701e-09, 1.2642665351593027e-11).transl(5.5206109698566173e-08, -3.8957631431749245e-08, 0))
hIsland = hIsland.sub(rect(2.8968379433569115e-09, -3.14635037768996e-10).transl(-8.259788536547603e-08, -2.197909697952078e-08, 0))
hIsland = hIsland.add(rect(3.977312898038469e-09, 1.4341517504403798e-09).transl(7.035647483693941e-08, -3.304526408719593e-08, 0))
hIsland = hIsland.sub(rect(9.401556469250416e-09, -1.9329251537399433e-09).transl(-3.083967520108826e-08, -4e-08, 0))
hIsland = hIsland.sub(rect(9.967328182027572e-09, -3.5391194449828275e-10).transl(-8.889819403508631e-08, -8.797241339000722e-09, 0))
hIsland = hIsland.sub(rect(4.338250531047884e-09, -1.0366215107888108e-09).transl(-5.2992121053143077e-08, -3.936409093536807e-08, 0))
hIsland = hIsland.add(rect(4.730540270921102e-09, 1.6772322704116997e-10).transl(-8.765480054455596e-08, -1.2744571050550812e-08, 0))
hIsland = hIsland.add(rect(8.887169182998158e-09, 1.3043124174251435e-09).transl(3.981993635880064e-08, -4e-08, 0))
hIsland = hIsland.add(rect(7.872421182012386e-09, 2.725962868151325e-09).transl(-3.500403168105431e-08, -4e-08, 0))
hIsland = hIsland.sub(rect(6.415682084440134e-09, -1.6564153754931154e-09).transl(5.300743287414525e-08, -3.936163219305796e-08, 0))
hIsland = hIsland.sub(rect(7.46817326904323e-09, -1.3461046278732093e-09).transl(-3.983770103452812e-08, -4e-08, 0))
hIsland = hIsland.add(rect(4.773829939755174e-09, 4.90919053923258e-11).transl(4.434470565418888e-08, -4e-08, 0))
hIsland = hIsland.add(rect(9.329210038713137e-09, 2.4791402635235794e-09).transl(-1.509538780450978e-08, -4e-08, 0))
hIsland = hIsland.sub(rect(3.126298894436653e-09, -9.740141840486064e-10).transl(7.936976964347257e-08, -2.58194136495893e-08, 0))
hIsland = hIsland.sub(rect(8.123323416023627e-09, -2.0625964333437535e-09).transl(8.977387545029361e-08, -4.004942838546694e-09, 0))
hIsland = hIsland.sub(rect(5.27513851570083e-09, -3.9987187066994655e-10).transl(4.93344673142347e-08, -3.981401098976094e-08, 0))
hIsland = hIsland.add(rect(8.554455579392555e-09, 2.1375436164174266e-09).transl(2.8659521745896554e-08, -4e-08, 0))
hIsland = hIsland.add(rect(4.145480749571429e-09, 1.3664625317729826e-09).transl(-6.061805760776488e-08, -3.751359945996777e-08, 0))
hIsland = hIsland.sub(rect(3.055867732832372e-09, -9.833505059013754e-10).transl(2.4339669182755123e-08, -4e-08, 0))
hIsland = hIsland.sub(rect(3.4827371412827387e-09, -1.932617323611317e-09).transl(5.7667924061924725e-08, -3.838233853063855e-08, 0))
hIsland = hIsland.add(rect(4.83934749715712e-09, 1.001820502782625e-09).transl(-8.500830180301988e-08, -1.831058870535228e-08, 0))
hIsland = hIsland.add(rect(2.3253472822704895e-09, 2.5780371279595917e-09).transl(8.020786968571907e-08, -2.4911194959810123e-08, 0))
hIsland = hIsland.add(rect(7.422587611640056e-09, 2.748890576315484e-09).transl(1.215743899205381e-08, -4e-08, 0))
hIsland = hIsland.sub(rect(8.989167698029317e-09, -1.6443651420461944e-09).transl(-5.882165692113837e-08, -3.806647129694275e-08, 0))
hIsland = hIsland.add(rect(9.77414427096037e-09, 5.560423451610833e-10).transl(-8.23454723872866e-08, -2.2316523330634352e-08, 0))
hIsland = hIsland.sub(rect(7.00162394552629e-09, -7.430791761692293e-10).transl(7.44037849745893e-08, -3.027991133497291e-08, 0))
hIsland = hIsland.sub(rect(4.1676443492336515e-09, -8.865714005980683e-10).transl(-2.4340930456845384e-08, -4e-08, 0))
hIsland = hIsland.add(rect(5.049773947363541e-09, 8.006831321628069e-10).transl(7.858790944192923e-08, -2.661999381244161e-08, 0))
hIsland = hIsland.add(rect(6.620448165336175e-09, 8.834556318598996e-10).transl(1.132202761011449e-08, -4e-08, 0))
hIsland = hIsland.sub(rect(4.3051829208281e-09, -4.493397851328933e-10).transl(-7.833216378857432e-08, -2.6872786468471662e-08, 0))
hIsland = hIsland.add(rect(8.098541084424505e-09, 4.794048020132803e-10).transl(7.082855637190576e-08, -3.2755111418587453e-08, 0))
hIsland = hIsland.sub(rect(8.981458541172343e-09, -9.700961042806607e-10).transl(-6.21196896270909e-08, -3.699226454551137e-08, 0))
hIsland = hIsland.sub(rect(7.3197607655403855e-09, -6.755144374809115e-11).transl(-5.209732912278658e-08, -3.949936502641094e-08, 0))
hIsland = hIsland.sub(rect(9.694398082989603e-09, -1.2690837389729085e-09).transl(5.054671559227234e-08, -3.9694974734481384e-08, 0))
hIsland = hIsland.add(rect(4.001611267518257e-09, 2.3625508258411e-09).transl(3.9625584714181904e-08, -4e-08, 0))
hIsland = hIsland.add(rect(6.866787340760995e-09, 1.5771477051146453e-10).transl(-6.588081820918328e-08, -3.543302699748465e-08, 0))
hIsland = hIsland.add(rect(6.0260485021759964e-09, 3.5035534534877014e-09).transl(-7.892276556596327e-08, -2.6282356304635444e-08, 0))
hIsland = hIsland.add(rect(3.0067923694939244e-09, 1.4070644207327775e-09).transl(8.830206734704276e-08, -1.0884115542317068e-08, 0))
hIsland = hIsland.sub(rect(6.8798869000482475e-09, -2.286034575251498e-09).transl(3.45507768626375e-08, -4e-08, 0))
hIsland = hIsland.add(rect(4.7830693944608854e-09, 1.0390783993671826e-09).transl(6.346862690738766e-08, -3.6475973571986675e-08, 0))
hIsland = hIsland.sub(rect(3.939315162067919e-09, -4.123742021655181e-09).transl(6.134922752767787e-08, -3.7266636286989224e-08, 0))
hIsland = hIsland.add(rect(9.622733997765038e-09, 7.114497506839533e-10).transl(5.319124615957845e-08, -3.933173617702145e-08, 0))
hIsland = hIsland.add(rect(9.354009451406367e-09, 1.2656800471869843e-09).transl(8.654445560845989e-08, -1.5371821793198166e-08, 0))
hIsland = hIsland.add(rect(8.878020813121052e-09, 9.848729186001694e-10).transl(6.044382564166871e-09, -4e-08, 0))
hIsland = hIsland.sub(rect(3.2114914378406887e-09, -5.331610833671269e-09).transl(-5.695061321640235e-08, -3.85636722164313e-08, 0))
hIsland = hIsland.add(rect(2.1482360185864683e-09, 4.4899267240489546e-10).transl(4.710632476049287e-08, -3.995615766203935e-08, 0))
hIsland = hIsland.add(rect(9.885782070172095e-09, 5.39774584122771e-10).transl(3.459708161083104e-08, -4e-08, 0))
hIsland = hIsland.sub(rect(9.68181277843096e-09, -5.045004800898373e-10).transl(4.335340224621949e-10, -4e-08, 0))
hIsland = hIsland.add(rect(5.72001906645662e-09, 3.964736664866762e-09).transl(6.675030701422297e-08, -3.501730529260061e-08, 0))
hIsland = hIsland.sub(rect(7.6098576273737e-09, -5.973149418099872e-10).transl(-2.3308835786387053e-08, -4e-08, 0))
hIsland = hIsland.sub(rect(8.114055889826078e-09, -8.718097595636145e-10).transl(2.8912708830944948e-08, -4e-08, 0))
hIsland = hIsland.add(rect(2.8472787169341975e-09, 1.0930685253701968e-09).transl(4.1953936666279676e-08, -4e-08, 0))
hIsland = hIsland.add(rect(4.663528683789371e-09, 1.8831390659869726e-10).transl(-5.972714445070163e-08, -3.779723646652235e-08, 0))
hIsland = hIsland.add(rect(9.361480869921153e-09, 2.7860326063876402e-09).transl(3.820550067284994e-08, -4e-08, 0))
hIsland = hIsland.add(rect(2.2498984661277002e-09, 8.326991189262132e-10).transl(2.5192656660549276e-09, -4e-08, 0))
hIsland = hIsland.sub(rect(9.310878890501297e-09, -2.658320131026218e-09).transl(8.334076557574547e-08, -2.0940563885779326e-08, 0))
hIsland = hIsland.sub(rect(5.292323623864759e-09, -1.556777789278937e-09).transl(-2.0109085916937387e-08, -4e-08, 0))
hIsland = hIsland.sub(rect(4.309527394993831e-09, -1.7931579855443877e-09).transl(-5.8177944027447655e-08, -3.824641912350011e-08, 0))
hIsland = hIsland.sub(rect(2.6936690222580675e-09, -3.1958215782416954e-10).transl(-1.3938214236750286e-08, -4e-08, 0))
hIsland = hIsland.sub(rect(5.036766271804222e-09, -1.901415863012545e-09).transl(2.460466706962841e-08, -4e-08, 0))
hIsland = hIsland.add(rect(7.730893302090387e-09, 2.9190289565784234e-10).transl(-5.576006843089892e-08, -3.8839673516954326e-08, 0))
hIsland = hIsland.add(rect(3.812592927261265e-09, 3.773666472316747e-09).transl(-2.9526213225476558e-08, -4e-08, 0))
hIsland = hIsland.add(rect(3.185992579116218e-09, 2.7673933296050307e-10).transl(3.007015626768752e-08, -4e-08, 0))
hIsland = hIsland.add(rect(4.023045128575786e-09, 2.0785426021193494e-09).transl(5.332097248336301e-09, -4e-08, 0))
hIsland = hIsland.add(rect(8.679205326863323e-09, 9.832583200350364e-10).transl(-2.536520532013125e-08, -4e-08, 0))
hIsland = hIsland.add(rect(9.234332997736467e-09, 3.051087972738155e-09).transl(-8.595194282604956e-08, -1.6580539031806514e-08, 0))
hIsland = hIsland.add(rect(8.663226262578884e-09, 1.2212396267308817e-09).transl(5.673609225225846e-08, -3.861569195422233e-08, 0))
hIsland = hIsland.sub(rect(6.516720913536426e-09, -1.8237524614384232e-10).transl(-7.918006224932427e-08, -2.601763268580914e-08, 0))
hIsland = hIsland.add(rect(8.1468212973748e-09, 2.8086883410008027e-09).transl(7.297055020142367e-08, -3.133441538153266e-08, 0))
hIsland = hIsland.sub(rect(5.817929215904957e-09, -1.0359866937247478e-09).transl(7.959080214819615e-08, -2.558512541235445e-08, 0))
hIsland = hIsland.add(rect(8.893501672082525e-09, 1.2289833404642659e-09).transl(-5.0726864934031745e-08, -3.9674756901983566e-08, 0))
hIsland = hIsland.add(rect(2.7701250216533533e-09, 2.3475700664697057e-09).transl(4.6595926494876854e-08, -3.997483671348746e-08, 0))
hIsland = hIsland.add(rect(9.029809902116372e-09, 9.672331326090336e-10).transl(3.1338640157994916e-08, -4e-08, 0))
hIsland = hIsland.add(rect(9.149897204599807e-09, 2.946312110144314e-09).transl(-7.586755050227186e-09, -4e-08, 0))
hIsland = hIsland.sub(rect(6.505734412437695e-09, -1.7670740214797748e-10).transl(-5.098800220267729e-09, -4e-08, 0))
hIsland = hIsland.add(rect(3.904958560358712e-09, 8.676822865883269e-10).transl(7.291796931993378e-08, -3.137144398209883e-08, 0))
hIsland = hIsland.add(rect(6.996876989890472e-09, 1.5386278823807604e-09).transl(-3.4617301631540253e-09, -4e-08, 0))
hIsland = hIsland.sub(rect(8.47959932097525e-09, -3.2459681073306995e-09).transl(-5.822665939049339e-08, -3.823313003393654e-08, 0))
hIsland = hIsland.add(rect(7.863928468888429e-09, 2.701822376898477e-09).transl(-5.152658037096771e-09, -4e-08, 0))
hIsland = hIsland.add(rect(9.679865719758024e-09, 7.7120412643146e-10).transl(-7.93608124356905e-09, -4e-08, 0))
hIsland = hIsland.sub(rect(7.786957434365124e-09, -1.6202806242334405e-09).transl(5.300106189974129e-08, -3.936265582203715e-08, 0))
hIsland = hIsland.sub(rect(2.455200188051717e-09, -4.655387251057162e-10).transl(5.7808440785305704e-08, -3.834547409312632e-08, 0))
hIsland = hIsland.sub(rect(4.779962959080824e-09, -2.476514089599613e-09).transl(-8.302781880010494e-08, -2.1386692478166496e-08, 0))
hIsland = hIsland.add(rect(7.56680255057035e-09, 1.9109586074851815e-09).transl(2.631940648163244e-08, -4e-08, 0))
hIsland = hIsland.add(rect(4.830145253817176e-09, 3.807825213456678e-09).transl(2.1543114859602413e-08, -4e-08, 0))
hIsland = hIsland.add(rect(8.128942132642161e-09, 5.62132277918094e-10).transl(1.4392942896642386e-08, -4e-08, 0))
hIsland = hIsland.add(rect(6.163185951709715e-09, 2.0221488654512894e-09).transl(1.8429369576098554e-08, -4e-08, 0))
hIsland = hIsland.sub(rect(8.31402018231286e-09, -1.650253662134191e-09).transl(-5.1735544746620475e-08, -3.9549387154160155e-08, 0))
hIsland = hIsland.add(rect(8.859695225887186e-09, 8.783312233616704e-10).transl(6.774469136048536e-08, -3.4514526724200725e-08, 0))
hIsland = hIsland.add(rect(9.204562600778503e-09, 4.48025271590316e-10).transl(2.8180780617632618e-08, -4e-08, 0))
hIsland = hIsland.sub(rect(8.772014137378684e-09, -8.148191956525994e-10).transl(-6.548028488055359e-08, -3.5617256810225094e-08, 0))
hIsland = hIsland.add(rect(2.781253657968857e-09, 2.975155532699574e-09).transl(5.770076131218432e-08, -3.837376328064207e-08, 0))
hIsland = hIsland.add(rect(2.5942116866202423e-09, 2.509639244553653e-09).transl(-5.991356077072243e-08, -3.773943890022842e-08, 0))
hIsland = hIsland.add(rect(6.446999716004471e-09, 6.496140882020986e-10).transl(2.8391703279039786e-08, -4e-08, 0))
hIsland = hIsland.sub(rect(7.912765441316647e-09, -4.948073688791787e-09).transl(-2.9135951891332398e-08, -4e-08, 0))
hIsland = hIsland.add(rect(2.550052266846204e-09, 3.4745157647105904e-09).transl(-3.0494466142364525e-08, -4e-08, 0))
hIsland = hIsland.sub(rect(9.493899073741591e-09, -5.4668148669097286e-11).transl(3.437723506397621e-08, -4e-08, 0))
hIsland = hIsland.add(rect(9.27579963038679e-09, 3.251812032048852e-09).transl(4.0194159040577e-08, -4e-08, 0))
hIsland = hIsland.sub(rect(5.9865240063097574e-09, -5.546236154258047e-10).transl(-2.2779875684883252e-08, -4e-08, 0))
hIsland = hIsland.add(rect(8.254742854381414e-09, 1.1468684109225367e-09).transl(-6.273165027258972e-09, -4e-08, 0))
hIsland = hIsland.add(rect(5.982090644093208e-09, 1.4595649650905702e-09).transl(3.038650303775341e-08, -4e-08, 0))
hIsland = hIsland.sub(rect(2.6587983014929934e-09, -2.0038318885435873e-09).transl(-5.976050421010773e-08, -3.778695329579355e-08, 0))
hIsland = hIsland.add(rect(2.0706304691790288e-09, 4.044305751888984e-09).transl(-3.7221544760818838e-09, -4e-08, 0))
hIsland = hIsland.add(rect(5.196546289446824e-09, 1.984359770492415e-09).transl(4.63464740589998e-08, -3.998208989265627e-08, 0))
hIsland = hIsland.add(rect(9.445917585663434e-09, 3.0345595651179493e-09).transl(7.551829265013823e-08, -2.939567535130674e-08, 0))
hIsland = hIsland.sub(rect(5.8008373016828174e-09, -9.937648116909547e-12).transl(-3.4857052376862834e-09, -4e-08, 0))
hIsland = hIsland.add(rect(4.329286411000466e-09, 2.9641302786467426e-09).transl(9.702407015226698e-09, -4e-08, 0))
hIsland = hIsland.add(rect(9.787644245983302e-09, 1.5929997652875103e-09).transl(1.588588483528201e-08, -4e-08, 0))
hIsland = hIsland.sub(rect(7.728483208281966e-09, -1.1575042088143096e-11).transl(7.003540557218197e-08, -3.3238127359844193e-08, 0))
hIsland = hIsland.add(rect(9.75958157636554e-09, 1.1712138136960408e-09).transl(8.029739682509106e-08, -2.481089011988245e-08, 0))
hIsland = hIsland.sub(rect(2.6125894415529038e-09, -8.856411581371679e-10).transl(1.2851860443006315e-09, -4e-08, 0))
hIsland = hIsland.add(rect(4.27616653011048e-09, 2.861944397697981e-09).transl(2.1869922897195474e-08, -4e-08, 0))
hIsland = hIsland.sub(rect(5.352013778996104e-09, -2.470511095865661e-09).transl(-4.285413253703722e-08, -4e-08, 0))
hIsland = hIsland.add(rect(6.5492781896115e-09, 6.02658542295619e-10).transl(4.346346691404746e-08, -4e-08, 0))
hIsland = hIsland.sub(rect(3.067243834698868e-09, -2.6015737970479385e-09).transl(-5.536857147160466e-08, -3.892372002714015e-08, 0))
hIsland = hIsland.add(rect(2.5367575159537153e-09, 1.8015560246093634e-09).transl(4.896424620536116e-08, -3.984448536427996e-08, 0))
hIsland = hIsland.sub(rect(9.62526949454498e-09, -1.7511124164478685e-09).transl(-3.944176406009773e-08, -4e-08, 0))
hIsland = hIsland.sub(rect(4.7627266435377606e-09, -4.549991068087416e-09).transl(1.3202626722968967e-08, -4e-08, 0))
hIsland = hIsland.sub(rect(2.1837789088416895e-09, -4.497809226532491e-10).transl(2.3388585393285115e-08, -4e-08, 0))
hIsland = hIsland.sub(rect(5.462321488859198e-09, -3.2958129409167588e-09).transl(4.659839540539649e-08, -3.997475877307253e-08, 0))
hIsland = hIsland.sub(rect(2.272705862368639e-09, -1.6414259607858813e-09).transl(-7.008750412945928e-08, -3.320707509386919e-08, 0))
hIsland = hIsland.sub(rect(6.015804303375564e-09, -1.540142457010274e-09).transl(5.311722518150413e-08, -3.93438595366759e-08, 0))
hIsland = hIsland.sub(rect(5.366494430812684e-09, -4.75920110640157e-09).transl(-8.06116701477329e-08, -2.445347629974073e-08, 0))
hIsland = hIsland.sub(rect(7.224526912411835e-09, -1.119442747974834e-09).transl(-8.737264725223013e-08, -1.3467730499617628e-08, 0))
hIsland = hIsland.sub(rect(2.6777127996382354e-09, -3.2469425439438413e-09).transl(8.57046409841147e-08, -1.7054908040794748e-08, 0))
hIsland = hIsland.sub(rect(3.1156229629318556e-09, -6.354708415384934e-10).transl(4.667408915419421e-08, -3.997231066815075e-08, 0))
hIsland = hIsland.sub(rect(6.380393964266832e-09, -1.5549674554272334e-09).transl(-1.5909167933419625e-08, -4e-08, 0))
hIsland = hIsland.sub(rect(6.219096282599411e-09, -1.664460327670293e-10).transl(2.6012381751119106e-08, -4e-08, 0))
hIsland = hIsland.sub(rect(7.042180501877463e-09, -1.33917200814134e-09).transl(-8.647629602926355e-08, -1.551657000898623e-08, 0))
hIsland = hIsland.add(rect(4.024173902397504e-09, 2.5646374976267646e-09).transl(6.354426540912619e-08, -3.644563922633281e-08, 0))
hIsland = hIsland.add(rect(9.776692827390531e-09, 1.4397259894923918e-09).transl(2.5485099086414984e-08, -4e-08, 0))
hIsland = hIsland.add(rect(4.40816586376003e-09, 2.916366432734786e-11).transl(-4.0002641064743644e-08, -4e-08, 0))
hIsland = hIsland.add(rect(2.9556580317037044e-09, 7.385033157187007e-10).transl(-2.3099557339218666e-08, -4e-08, 0))
hIsland = hIsland.sub(rect(7.3144828646985415e-09, -1.2613034127022428e-09).transl(8.993634209454657e-08, -2.126871539999638e-09, 0))
hIsland = hIsland.sub(rect(7.47921338796094e-09, -2.608120188304264e-09).transl(1.7401941709125273e-08, -4e-08, 0))
hIsland = hIsland.sub(rect(9.835640786684702e-09, -1.0725769200516688e-09).transl(7.510025208820018e-08, -2.9734294277470267e-08, 0))
hIsland = hIsland.sub(rect(8.283942792135747e-09, -1.5791445521268898e-09).transl(6.348287972952017e-08, -3.647026897399212e-08, 0))
hIsland = hIsland.sub(rect(8.763522958498726e-09, -1.4976327334640782e-09).transl(7.446067044258519e-08, -3.0236191504552306e-08, 0))
hIsland = hIsland.sub(rect(9.939024023736462e-09, -2.094593811503206e-09).transl(-2.992883699194046e-08, -4e-08, 0))
hIsland = hIsland.add(rect(6.691477915797869e-09, 6.257549362804254e-10).transl(-7.042679932582823e-08, -3.300254087988743e-08, 0))
hIsland = hIsland.sub(rect(5.965232189815025e-09, -1.813663877426037e-09).transl(-7.95450862450384e-08, -2.563388215100558e-08, 0))
hIsland = hIsland.sub(rect(7.83023714532339e-09, -1.3474594185400042e-09).transl(4.311015400784916e-08, -4e-08, 0))
hIsland = hIsland.add(rect(9.991377678110911e-09, 5.704377232558686e-10).transl(-5.8560866841577434e-08, -3.814051101063151e-08, 0))
hIsland = hIsland.add(rect(8.014152028409621e-09, 1.2124405541203719e-09).transl(-6.297691857282094e-08, -3.666955300290719e-08, 0))
hIsland = hIsland.add(rect(3.449685092678878e-09, 9.147623835115075e-10).transl(4.560877390240158e-08, -3.9996339529655216e-08, 0))
hIsland = hIsland.sub(rect(2.6423245753990934e-09, -3.7207151451566643e-10).transl(-3.3756016378890007e-08, -4e-08, 0))
hIsland = hIsland.sub(rect(9.219478626718705e-09, -1.1253624390411881e-09).transl(-7.639789568015577e-08, -2.865439388428067e-08, 0))
hIsland = hIsland.sub(rect(3.609830705053603e-09, -2.1334235137225816e-09).transl(-1.196903445058096e-08, -4e-08, 0))
hIsland = hIsland.add(rect(3.7000748917970115e-09, 3.101609810774844e-09).transl(-5.248216392184252e-08, -3.944320847437403e-08, 0))
hIsland = hIsland.sub(rect(3.0317231739136407e-09, -1.9768233539257273e-09).transl(-8.488050061119702e-08, -1.8529563613424692e-08, 0))
hIsland = hIsland.sub(rect(8.581307096524547e-09, -2.3254418131942963e-09).transl(-3.5566801805548625e-08, 4e-08, 0))
hIsland = hIsland.add(rect(2.8936363148220033e-09, 2.287256267130805e-09).transl(8.166701659171497e-08, 2.318841591191644e-08, 0))
hIsland = hIsland.sub(rect(2.3728259682498455e-09, -1.1408707955262355e-09).transl(4.485318121369964e-08, 4e-08, 0))
hIsland = hIsland.sub(rect(2.628615058323523e-09, -1.8601654502905766e-09).transl(-2.8547853330530303e-08, 4e-08, 0))
hIsland = hIsland.sub(rect(3.3078363513805215e-09, -2.2442348040027118e-10).transl(-6.105121069726328e-08, 3.73688575446751e-08, 0))
hIsland = hIsland.sub(rect(6.969494812972714e-09, -9.74295351430647e-10).transl(-7.733980886292062e-08, 2.781436541829649e-08, 0))
hIsland = hIsland.add(rect(7.689158199635674e-09, 1.177333343332164e-10).transl(1.8465723891739137e-08, 4e-08, 0))
hIsland = hIsland.sub(rect(6.1584426128181935e-09, -1.4804582569719775e-09).transl(-3.4628732789527105e-09, 4e-08, 0))
hIsland = hIsland.add(rect(6.410530961734255e-09, 4.1675937120409936e-09).transl(-7.700676760395695e-08, 2.81171001444033e-08, 0))
hIsland = hIsland.sub(rect(3.5099041667959476e-09, -2.549487685792007e-10).transl(-5.078658095158676e-08, 3.966791015433548e-08, 0))
hIsland = hIsland.sub(rect(3.2914085624308664e-09, -7.540566035190025e-10).transl(-7.942236245908562e-08, 2.576399574462689e-08, 0))
hIsland = hIsland.add(rect(2.9585338974584724e-09, 1.5472893611509135e-10).transl(7.825855240482069e-08, 2.6944752869687463e-08, 0))
hIsland = hIsland.sub(rect(8.031749157003305e-09, -3.5486625629107405e-09).transl(2.017332923156881e-09, 4e-08, 0))
hIsland = hIsland.add(rect(9.449471060175497e-09, 8.831481925856836e-10).transl(6.500669654574505e-08, 3.58293027832941e-08, 0))
hIsland = hIsland.add(rect(3.725225174305216e-09, 1.865862769732006e-09).transl(9.827749316494248e-10, 4e-08, 0))
hIsland = hIsland.sub(rect(9.04708144947799e-09, -1.8770265468208705e-09).transl(1.4979874985466492e-09, 4e-08, 0))
hIsland = hIsland.sub(rect(4.060648204615692e-09, -1.420825403043465e-09).transl(-4.033204474302097e-08, 4e-08, 0))
hIsland = hIsland.add(rect(3.988582147697283e-09, 4.534130296877016e-10).transl(-2.8891950387421073e-08, 4e-08, 0))
hIsland = hIsland.sub(rect(2.502777333229111e-09, -3.898526362815704e-11).transl(-8.525912693518641e-08, 1.7870927041336705e-08, 0))
hIsland = hIsland.add(rect(4.3863625783172165e-09, 1.0419773975392779e-11).transl(-3.814259453126658e-08, 4e-08, 0))
hIsland = hIsland.sub(rect(9.288778712637386e-09, -8.38714225199865e-10).transl(1.9745612600070028e-08, 4e-08, 0))
hIsland = hIsland.sub(rect(4.866348839841776e-09, -1.1924790084068097e-09).transl(4.603170871076435e-08, 3.998948579973635e-08, 0))
hIsland = hIsland.add(rect(7.393607726854545e-09, 8.446123257103997e-10).transl(8.167245121445663e-08, 2.318162442861314e-08, 0))
hIsland = hIsland.sub(rect(7.46132149443459e-09, -2.162413394839216e-11).transl(-3.411204888804545e-08, 4e-08, 0))
hIsland = hIsland.sub(rect(3.58313664685534e-09, -1.0179503592308624e-09).transl(6.564019192361116e-08, 3.554424795034705e-08, 0))
[...]
hIsland = hIsland.add(rect(8.370012609998283e-09, 1.557853851003851e-09).transl(1.5216703598366392e-08, 4e-08, 0))
hIsland = hIsland.sub(rect(8.660033489835578e-09, -1.4667567398129585e-09).transl(-3.432749378631111e-08, 4e-08, 0))
hIsland = hIsland.add(rect(6.605642601822941e-09, 3.720412828512832e-10).transl(-7.188038807899649e-08, 3.207946598148602e-08, 0))
hIsland = hIsland.add(rect(7.497215246747054e-09, 1.7991027842732766e-09).transl(7.762106917899372e-08, 2.7553632128129527e-08, 0))
hIsland = hIsland.sub(rect(6.569422573477317e-09, -1.540361579510768e-09).transl(3.5273155430833204e-08, 4e-08, 0))
hIsland = hIsland.add(rect(9.936722312308723e-09, 8.11710496286807e-11).transl(-5.2567964121358665e-08, 3.9430272699811425e-08, 0))
hIsland = hIsland.add(rect(6.136132362027328e-09, 6.723455201962521e-10).transl(-1.5835313255867682e-08, 4e-08, 0))
hIsland = hIsland.add(rect(3.5020627223799557e-09, 8.260704126018361e-10).transl(6.111510479688027e-08, 3.734712335141266e-08, 0))
hIsland = hIsland.sub(rect(4.206895752366246e-09, -3.0452497242778113e-09).transl(-3.949308017177879e-08, 4e-08, 0))
hIsland = hIsland.sub(rect(2.816394917290806e-09, -1.3795686207618587e-09).transl(1.7446681560388678e-08, 4e-08, 0))
hIsland = hIsland.sub(rect(6.925249555423071e-09, -1.7831789269376746e-09).transl(-3.184666710189884e-08, 4e-08, 0))
hIsland = hIsland.add(rect(9.688684088696157e-09, 3.033879459652334e-09).transl(4.199932959105925e-08, 4e-08, 0))
hIsland = hIsland.sub(rect(5.896502443102318e-09, -1.5952916077927687e-09).transl(-1.9223955339501707e-08, 4e-08, 0))
hIsland = hIsland.sub(rect(3.633893645588671e-09, -4.121129827626026e-09).transl(-7.338933664523799e-08, 3.1035407129256335e-08, 0))
hIsland = hIsland.add(rect(7.876485470268367e-09, 2.3544090607432833e-09).transl(1.3390536654042421e-08, 4e-08, 0))
hIsland = hIsland.sub(rect(3.799832284478866e-09, -1.0656182252412372e-09).transl(7.177477581389876e-08, 3.2149175503009846e-08, 0))
hIsland = hIsland.add(rect(9.842265198941384e-09, 5.859524646995058e-10).transl(-7.67577361456058e-08, 2.833933628651812e-08, 0))
hIsland = hIsland.sub(rect(2.0415262966539292e-09, -2.0896063850854605e-10).transl(-5.5868097569284434e-08, 3.8815900575168216e-08, 0))
hIsland = hIsland.sub(rect(6.615740024022882e-09, -7.107976453324065e-09).transl(4.248793513340391e-08, 4e-08, 0))
hIsland = hIsland.add(rect(3.797914199506671e-09, 1.0386363805218745e-09).transl(-3.4672685566531056e-09, 4e-08, 0))
hIsland = hIsland.sub(rect(9.065313778237481e-09, -2.099686902032859e-09).transl(-5.6774403606903404e-08, 3.860647595853806e-08, 0))
hIsland = hIsland.sub(rect(5.9113861302427495e-09, -7.805434515490146e-10).transl(-4.1827568586624404e-08, 4e-08, 0))
hIsland = hIsland.add(rect(3.836108702333194e-09, 1.6714708680131301e-09).transl(8.873574854222835e-09, 4e-08, 0))
hIsland = hIsland.sub(rect(8.379130885426491e-09, -9.927204681250941e-10).transl(7.672644479456706e-08, 2.8367015457799636e-08, 0))
hIsland = hIsland.sub(rect(4.421277251815765e-09, -2.327407726412856e-09).transl(-8.565943826326145e-08, 1.7139891066476808e-08, 0))
hIsland = hIsland.sub(rect(3.295908415010757e-09, -1.824607582911305e-09).transl(3.3978480115221e-08, 4e-08, 0))
hIsland = hIsland.add(rect(2.7893134136515796e-09, 4.616204233915093e-09).transl(-1.984443947966145e-08, 4e-08, 0))
hIsland = hIsland.sub(rect(6.257993224885788e-09, -3.006289745999789e-09).transl(-1.5515388448122154e-08, 4e-08, 0))
hIsland = hIsland.sub(rect(7.763899023258891e-09, -2.2663229003823546e-10).transl(-7.362793708166826e-08, 3.086174626422599e-08, 0))
hIsland = hIsland.add(rect(5.348475404829758e-09, 3.3540903932580634e-10).transl(8.509129847107139e-08, 1.816658795831474e-08, 0))
hIsland = hIsland.add(rect(5.1040712372804935e-09, 1.9150493550670116e-09).transl(7.782178200981647e-08, 2.7364652347216482e-08, 0))
hIsland = hIsland.sub(rect(6.674993762939018e-09, -1.4694642306463102e-09).transl(1.84797035425507e-08, 4e-08, 0))
hIsland = hIsland.add(rect(4.012329735957995e-09, 1.6497540417268878e-10).transl(-6.612533775323151e-08, 3.531832083378311e-08, 0))
hIsland = hIsland.sub(rect(4.354602452030462e-09, -1.316545855463051e-09).transl(-6.560484137255491e-08, 3.556044979661756e-08, 0))
hIsland = hIsland.sub(rect(2.3047616747714565e-09, -1.8144565897460639e-09).transl(-7.419242037329358e-08, 3.04410715763291e-08, 0))
hIsland = hIsland.sub(rect(8.006826677304662e-09, -1.5994764220288213e-09).transl(5.610323745552963e-09, 4e-08, 0))
hIsland = hIsland.add(rect(3.48436428448595e-09, 5.849109877263942e-10).transl(-2.146593257208254e-08, 4e-08, 0))
hIsland = hIsland.add(rect(2.5903098964824383e-09, 2.6427954943661107e-09).transl(-8.573863975732154e-08, 1.6990646216168697e-08, 0))
hIsland = hIsland.add(rect(2.6481928915891058e-09, 1.789386153839665e-09).transl(-1.2147678597778832e-08, 4e-08, 0))
hIsland = hIsland.sub(rect(9.330666729241059e-09, -9.970943197447276e-10).transl(1.5645452864625653e-08, 4e-08, 0))
hIsland = hIsland.add(rect(7.74185005365287e-09, 3.4856812716144796e-11).transl(8.892584209826842e-09, 4e-08, 0))
hIsland = hIsland.add(rect(7.3371663589645425e-09, 3.178200338320869e-09).transl(1.917644370220591e-08, 4e-08, 0))
hIsland = hIsland.sub(rect(3.0516458733798686e-09, -2.492986808216798e-10).transl(4.7057195282536325e-08, 3.99581800899929e-08, 0))
hIsland = hIsland.sub(rect(4.681137381212366e-09, -8.175022561041727e-10).transl(7.760867749066102e-08, 2.7565219127170647e-08, 0))
hIsland = hIsland.sub(rect(5.47127589690592e-09, -3.57791989312577e-09).transl(-4.876886480180218e-08, 3.9859463321538536e-08, 0))
hIsland = hIsland.add(rect(2.67815112720362e-09, 1.6638232142991242e-09).transl(2.3960475340963385e-08, 4e-08, 0))
hIsland = hIsland.sub(rect(3.9976270879828175e-09, -5.027802943060026e-10).transl(2.8263852678668923e-08, 4e-08, 0))
hIsland = hIsland.sub(rect(8.294755710562857e-09, -1.6410589491466193e-09).transl(6.2473271815014e-08, 3.686140633106812e-08, 0))
hIsland = hIsland.add(rect(5.992488526421243e-09, 1.5794279391052958e-10).transl(7.30088956535876e-08, 3.130734006804872e-08, 0))
hIsland = hIsland.add(rect(8.32413746434571e-09, 1.741725927943378e-09).transl(7.0411650441341e-08, 3.301175873522594e-08, 0))
hIsland = hIsland.add(rect(3.105984275868985e-09, 1.6521125231057956e-10).transl(-1.1439592250371747e-08, 4e-08, 0))
hIsland = hIsland.sub(rect(8.942110392555112e-09, -2.5560965476733813e-09).transl(-5.220417066083764e-08, 3.94840794929307e-08, 0))
hIsland = hIsland.add(rect(7.741994808339404e-09, 6.742411336824702e-10).transl(7.657996214618527e-08, 2.8495870052531657e-08, 0))
hIsland = hIsland.sub(rect(3.621112397561043e-09, -2.2739829320808937e-09).transl(3.899624802884053e-08, 4e-08, 0))
hIsland = hIsland.add(rect(9.335846948908358e-09, 1.9847401912218977e-09).transl(5.8802669140394034e-08, 3.8071914533259344e-08, 0))
hIsland = hIsland.sub(rect(5.836882386902427e-09, -9.89121714235957e-10).transl(-7.17335398919399e-08, 3.2176277986484894e-08, 0))
hIsland = hIsland.sub(rect(5.068773613035729e-09, -1.6086202236166526e-09).transl(-5.485220009241204e-08, 3.902955287599399e-08, 0))
hIsland = hIsland.sub(rect(3.1562368411286857e-09, -1.1172238522137495e-11).transl(2.6035461173071396e-08, 4e-08, 0))
hIsland = hIsland.add(rect(2.9183140716500352e-09, 5.836100814861534e-10).transl(8.431149530836736e-08, 1.946659232091763e-08, 0))
hIsland = hIsland.sub(rect(2.756837754816641e-09, -2.4028730078627845e-09).transl(-5.9022990117995774e-08, 3.8008245999662223e-08, 0))
hIsland = hIsland.add(rect(6.051309730056757e-09, 2.1852612765342752e-09).transl(6.950520340648307e-08, 3.354887357760961e-08, 0))
hIsland = hIsland.add(rect(6.016285776306169e-09, 2.551202087347209e-10).transl(3.7232129867028156e-08, 4e-08, 0))
hIsland = hIsland.add(rect(6.574612884186669e-09, 4.4611416533451744e-10).transl(-7.035567883057657e-10, 4e-08, 0))
hIsland = hIsland.add(rect(7.401663316846346e-09, 1.1334884684957725e-09).transl(-1.9039525277180164e-08, 4e-08, 0))
hIsland = hIsland.sub(rect(4.959885524578767e-09, -2.6231688910227947e-09).transl(3.2649244656678414e-08, 4e-08, 0))
hIsland = hIsland.add(rect(9.28676781666607e-09, 1.0485261634609154e-09).transl(-4.0235460902941433e-08, 4e-08, 0))
hIsland = hIsland.add(rect(4.0498484266741755e-09, 8.560044240213296e-10).transl(8.935260290178318e-08, 6.760618911647949e-09, 0))
hIsland = hIsland.sub(rect(6.23060504998869e-09, -2.9839784763948244e-09).transl(-6.777807352331069e-08, 3.449712807160136e-08, 0))
hIsland = hIsland.add(rect(4.288945916140493e-09, 2.4204717012438676e-09).transl(2.2411221242094903e-08, 4e-08, 0))
hIsland = hIsland.add(rect(8.791140997823469e-09, 6.7528117949740586e-09).transl(-8.531814341904967e-08, 1.7765491559853165e-08, 0))
hIsland = hIsland.sub(rect(6.7037936878199115e-09, -7.449813974006525e-10).transl(-6.367674681233411e-08, 3.639214815336094e-08, 0))
hIsland = hIsland.add(rect(2.9786018406645234e-09, 5.301959215831369e-09).transl(7.600695144203696e-08, 2.8988804476976544e-08, 0))
hIsland = hIsland.sub(rect(7.420805844002728e-09, -9.344662662922199e-10).transl(-8.823227187063116e-08, 1.1101174896026348e-08, 0))
hIsland = hIsland.add(rect(6.122075367079671e-09, 2.386542670157935e-09).transl(-5.1569084639573367e-08, 3.957150367137103e-08, 0))
hIsland = hIsland.sub(rect(3.901575075163106e-09, -5.737555820968195e-10).transl(-5.655781545193161e-09, 4e-08, 0))
hIsland = hIsland.add(rect(4.362579114782154e-09, 6.384052437176596e-10).transl(2.435729991098176e-08, 4e-08, 0))
hIsland = hIsland.sub(rect(5.441689965171302e-09, -2.243146640298025e-09).transl(-6.564714328061883e-08, 3.554105787040996e-08, 0))
hIsland = hIsland.sub(rect(3.896107732670805e-09, -2.2095020564471583e-09).transl(2.987479373108508e-08, 4e-08, 0))
hIsland = hIsland.add(rect(7.42597227662698e-09, 1.3847221572017732e-09).transl(-3.455712613553803e-08, 4e-08, 0))
hIsland = hIsland.sub(rect(6.252314380639313e-09, -5.085845296399375e-10).transl(7.905870820783917e-08, 2.6143072942646947e-08, 0))
hIsland = hIsland.add(rect(3.2208874164218815e-09, 1.4864916091776235e-10).transl(6.890689927486823e-08, 3.388824237851868e-08, 0))
hIsland = hIsland.sub(rect(7.167518632286661e-09, -2.0610708850233293e-09).transl(-8.589552624380414e-08, 1.6690198102038684e-08, 0))
hIsland = hIsland.add(rect(7.114586570549106e-09, 2.80186750815442e-09).transl(5.5391493872538444e-08, 3.8918889812970894e-08, 0))
hIsland = hIsland.sub(rect(8.253532795085309e-09, -1.7572836773536422e-09).transl(-8.256159040654453e-08, 2.20280750357925e-08, 0))
hIsland = hIsland.add(rect(9.333698784907022e-09, 2.7994449911809655e-09).transl(-7.881536459394376e-08, 2.639148560609493e-08, 0))
hIsland = hIsland.sub(rect(4.125802840424379e-09, -2.765659685707268e-09).transl(3.133592769807986e-08, 4e-08, 0))
hIsland = hIsland.sub(rect(7.2097838182992116e-09, -1.0114254237779531e-10).transl(8.881479279608448e-08, 9.119841117792333e-09, 0))
hIsland = hIsland.sub(rect(4.9462955320873765e-09, -2.59212489696727e-09).transl(-7.28726672777626e-08, 3.140325586734818e-08, 0))
hIsland = hIsland.add(rect(9.770108448331846e-09, 5.324638507393933e-10).transl(-6.709157191604335e-08, 3.484810015152185e-08, 0))
hIsland = hIsland.sub(rect(2.4382493344938858e-09, -1.7664206970753024e-09).transl(-6.222546465043803e-08, 3.695344677702511e-08, 0))
hIsland = hIsland.sub(rect(2.14477925300991e-09, -3.994352851955122e-09).transl(6.959143205241515e-08, 3.349898359525583e-08, 0))
hIsland = hIsland.add(rect(8.163066077362533e-09, 2.4105399478252642e-09).transl(-3.326519560257606e-08, 4e-08, 0))
hIsland = hIsland.add(rect(2.1710612674772404e-09, 1.58326695329429e-09).transl(-6.709860144691787e-08, 3.4844578390788805e-08, 0))
hIsland = hIsland.sub(rect(3.242256720981676e-09, -5.897748693126427e-11).transl(6.393997683329886e-08, 3.6284497550770686e-08, 0))
hIsland = hIsland.add(rect(7.167846927866798e-09, 1.0423995614605341e-09).transl(-7.89742820412392e-08, 2.6229726380594504e-08, 0))
hIsland = hIsland.sub(rect(6.8201834758652915e-09, -1.3545396157351572e-09).transl(5.7496250916511494e-08, 3.8426777834486803e-08, 0))
hIsland = hIsland.add(rect(8.29749350049873e-09, 5.944829012077937e-10).transl(3.906473648051124e-08, 4e-08, 0))
hIsland = hIsland.sub(rect(5.566030700273725e-09, -3.8645397241890353e-10).transl(-6.139543746190678e-08, 3.725059223121771e-08, 0))
hIsland = hIsland.sub(rect(4.208424447431567e-09, -1.1024358997678374e-09).transl(-3.838834929913861e-08, 4e-08, 0))
hIsland = hIsland.sub(rect(6.968564825296548e-09, -3.3556023534553574e-09).transl(1.6320166447536432e-08, 4e-08, 0))
hIsland = hIsland.sub(rect(6.456944892904283e-09, -8.312262457344083e-10).transl(3.618457197673959e-08, 4e-08, 0))
hIsland = hIsland.sub(rect(4.092810757541605e-09, -1.9533732746722548e-10).transl(-3.510996577446917e-08, 4e-08, 0))
hIsland = hIsland.add(rect(2.456434572959005e-09, 1.3921716095447244e-09).transl(1.4239365880053415e-08, 4e-08, 0))
hIsland = hIsland.add(rect(9.500713711523987e-09, 4.651068242928245e-09).transl(2.384278396879284e-08, 4e-08, 0))
hIsland = hIsland.add(rect(3.4658772311040197e-09, 2.9166243872634365e-11).transl(7.055584220659242e-08, 3.29236924453568e-08, 0))
hIsland = hIsland.sub(rect(2.080148283372613e-09, -1.979993165680532e-09).transl(6.560103341289033e-08, 3.556219296181847e-08, 0))
hIsland = hIsland.sub(rect(6.86937080555588e-09, -2.8034838024511346e-09).transl(2.410281661847361e-08, 4e-08, 0))
hIsland = hIsland.sub(rect(7.32041964391424e-09, -2.3790321030579954e-09).transl(1.6439966435612702e-09, 4e-08, 0))
hIsland = hIsland.add(rect(2.021476323242917e-09, 8.518640960940591e-10).transl(4.415747838901905e-08, 4e-08, 0))
hIsland = hIsland.sub(rect(6.175613039373382e-09, -6.540524297724238e-11).transl(-9.295107675563749e-09, 4e-08, 0))
hIsland = hIsland.sub(rect(9.544461302385351e-09, -1.6694366843186362e-09).transl(6.62523237624213e-08, 3.5258074816427074e-08, 0))
hIsland = hIsland.add(rect(6.183094479946805e-09, 2.4822429793539913e-09).transl(-6.392820252313677e-08, 3.628935182931895e-08, 0))
hIsland = hIsland.sub(rect(2.8830551523400686e-09, -2.3132075489761412e-09).transl(3.773271478782183e-08, 4e-08, 0))
hIsland = hIsland.add(rect(7.468362972899243e-09, 2.5079149976790694e-12).transl(-8.025451329641312e-08, 2.4859018460136494e-08, 0))
hIsland = hIsland.add(rect(2.49261038637136e-09, 6.930184507904264e-10).transl(6.206377316594248e-08, 3.701267205451827e-08, 0))
hIsland = hIsland.sub(rect(6.852005633088582e-09, -2.813748902919543e-09).transl(5.02143899099624e-08, 3.9730550614630727e-08, 0))
hIsland = hIsland.add(rect(2.741338287262164e-09, 2.0303150570134193e-09).transl(2.231550985248963e-08, 4e-08, 0))
hIsland = hIsland.sub(rect(2.7323187799956985e-09, -3.345560082597939e-09).transl(-4.2133617457230336e-08, 4e-08, 0))
hIsland = hIsland.add(rect(3.628121383487564e-09, 2.6525093513986907e-10).transl(-2.4737308043272846e-08, 4e-08, 0))
hIsland = hIsland.add(rect(9.795469157030073e-09, 2.734755493676373e-09).transl(-1.2352826187782356e-08, 4e-08, 0))
hIsland = hIsland.sub(rect(7.602078856348163e-09, -1.044344743500361e-09).transl(5.236589751525827e-08, 3.9460495551514944e-08, 0))
hIsland = hIsland.sub(rect(7.427689582622946e-09, -1.3389682127575169e-09).transl(6.28443924587893e-09, 4e-08, 0))
hIsland = hIsland.add(rect(4.0420577881018276e-09, 1.0320626169343888e-09).transl(8.832988695848568e-08, 1.0796282713348644e-08, 0))
hIsland = hIsland.sub(rect(8.064840183902599e-09, -1.2038676397425185e-09).transl(5.03226312138025e-08, 3.9719207998388434e-08, 0))
hIsland = hIsland.sub(rect(2.66045756157608e-09, -1.436360387700525e-09).transl(5.367320715103692e-08, 3.9250010705946945e-08, 0))
hIsland = hIsland.add(rect(9.678848209461316e-09, 3.1537444580141936e-09).transl(4.516823367795492e-08, 3.999972046746378e-08, 0))
hIsland = hIsland.sub(rect(9.654988001949925e-09, -6.703953482673779e-10).transl(3.7221690955430163e-08, 4e-08, 0))
hIsland = hIsland.add(rect(8.149794838738824e-09, 1.2067046396221172e-09).transl(4.667015641039923e-08, 3.997244065481934e-08, 0))
hIsland = hIsland.sub(rect(4.358263831937286e-09, -3.577178043285476e-09).transl(4.53990075960917e-08, 3.9998427553668075e-08, 0))
hIsland = hIsland.add(rect(9.801532667044888e-09, 6.519587820991113e-10).transl(-4.6233857301422385e-08, 3.9984961085576825e-08, 0))
hIsland = hIsland.add(rect(8.033456707667921e-09, 1.4456062162408378e-09).transl(-8.422614948174587e-08, 1.960215048592053e-08, 0))
hIsland = hIsland.add(rect(7.592382375218338e-09, 4.328037272126677e-09).transl(6.971343412116798e-08, 3.342796846511383e-08, 0))
hIsland = hIsland.sub(rect(7.509667541192622e-09, -2.802735775745726e-09).transl(-2.782491252594184e-10, 4e-08, 0))
hIsland = hIsland.sub(rect(5.665637584335309e-09, -2.5125594287593325e-09).transl(-6.70295858903258e-08, 3.48790910007362e-08, 0))
hIsland = hIsland.sub(rect(2.5008856866859688e-09, -2.203068468899242e-09).transl(2.3539547936957944e-08, 4e-08, 0))
hIsland = hIsland.sub(rect(2.1429761929058877e-09, -2.3528230514079043e-09).transl(1.7378264378571757e-08, 4e-08, 0))
hIsland = hIsland.sub(rect(3.306195176207661e-09, -1.2322076428945137e-09).transl(3.413237536086149e-08, 4e-08, 0))
hIsland = hIsland.sub(rect(3.1393480426104673e-09, -1.3052301836017574e-09).transl(7.602524345557498e-08, 2.8973336653846552e-08, 0))
hIsland = hIsland.sub(rect(5.0738087622396094e-09, -8.772608444322389e-10).transl(8.377737657432649e-08, 2.0295400021553282e-08, 0))
hIsland = hIsland.sub(rect(4.707350342259277e-09, -3.5902848041272574e-09).transl(-8.996047533856656e-08, 1.676128951142716e-09, 0))
hIsland = hIsland.sub(rect(8.718390340555434e-09, -3.3180720351244997e-09).transl(2.546022988536553e-08, 4e-08, 0))
hIsland = hIsland.sub(rect(6.9849413550125264e-09, -6.535646857083778e-10).transl(1.4024256523839899e-08, 4e-08, 0))
hIsland = hIsland.sub(rect(8.573053467767032e-09, -1.7728638914760699e-09).transl(-3.1876574805835784e-08, 4e-08, 0))
hIsland = hIsland.add(rect(5.257911132154626e-09, 1.0516676023877154e-09).transl(-5.364392895865609e-08, 3.925511360855938e-08, 0))
hIsland = hIsland.add(rect(5.139423275854194e-09, 2.5891902658504195e-09).transl(-8.428519705910887e-08, 1.9508494727677985e-08, 0))
hIsland = hIsland.sub(rect(4.55875890625528e-09, -3.401044363206043e-09).transl(1.29033861015119e-08, 4e-08, 0))
hIsland = hIsland.add(rect(4.181147285847439e-09, 1.8185484014139236e-09).transl(1.920580410624273e-08, 4e-08, 0))
hIsland = hIsland.sub(rect(7.261711741435284e-09, -4.5849894613804685e-09).transl(-6.988673772770372e-08, 3.332622484527046e-08, 0))
hIsland = hIsland.sub(rect(8.985295616997032e-09, -1.0451106625921574e-09).transl(1.1781613724357634e-08, 4e-08, 0))
hIsland = hIsland.sub(rect(2.702748303639443e-09, -3.714164835633227e-10).transl(-6.480157137432912e-09, 4e-08, 0))
hIsland = hIsland.add(rect(5.437539748681754e-09, 1.4112672486736028e-09).transl(-5.293609304199884e-09, 4e-08, 0))
hIsland = hIsland.add(rect(5.569698429585833e-09, 6.348994106350834e-10).transl(-7.093858792346963e-09, 4e-08, 0))
hIsland = hIsland.add(rect(2.8160483887785335e-09, 1.926196890658466e-09).transl(-8.145810676251241e-08, 2.3447238612525127e-08, 0))
hIsland = hIsland.add(rect(6.82505246428542e-09, 1.180893823379725e-09).transl(-2.4466984326793303e-08, 4e-08, 0))
vIsland = hIsland.rotz(pi / 2)
vIslands = vIslands.add(vIsland.transl(0, -a/2, 0))
DefRegion(1, hIslands)
DefRegion(2, vIslands)
TableAdd(m_full.Region(1))
TableAdd(m_full.Region(2))
setgeom(hIslands.add(vIslands))
save(geom)
r2o2 := sqrt(2) / 2
m = RandomMagSeed(4)
B_ext = vector(Bmax*r2o2, Bmax*r2o2, 0)
relax()
minimize()
for B := Bmax; B >= -Bmax; B -= Bstep {
	B_ext = vector(B*r2o2, B*r2o2, 0)
	minimize()
	tablesave()
}
//********************************************************************//
//Please cite the following references, relevant for your simulation. //
//See bibtex file in output folder for justification.                 //
//********************************************************************//
//   * Vansteenkiste et al., AIP Adv. 4, 107133 (2014).
//   * Exl et al., J. Appl. Phys. 115, 17D118 (2014).
