# t (s)	mx ()	my ()	mz ()	B_extx (T)	B_exty (T)	B_extz (T)	m_fullx (A/m)	m_fully (A/m)	m_fullz (A/m)	m_full.region1x (A/m)	m_full.region1y (A/m)	m_full.region1z (A/m)	m_full.region2x (A/m)	m_full.region2y (A/m)	m_full.region2z (A/m)
0	0.639371	0.63936967	-3.5871683e-10	0.070710726	0.070710726	0	123119.125	123118.87	-6.7442095e-05	654974.4	240143.62	-0.0002888232	240144.97	654973.8	-0.00026531436
0	0.6390922	0.63908976	-2.914574e-10	0.070357226	0.070357226	0	123065.44	123064.98	-5.6355726e-05	655198.1	239528.52	-0.00026867277	239530.94	655197.1	-0.00017631649
0	0.6388073	0.63880485	-5.4448092e-11	0.07000352	0.07000352	0	123010.586	123010.11	-1.0162507e-05	655425.44	238902.42	-5.373455e-05	238904.84	655424.4	-4.0300914e-05
0	0.63852113	0.63851863	-2.3060368e-10	0.069650024	0.06965002	0	122955.48	122955	-4.249776e-05	655652.75	238274.38	-6.716819e-05	238276.88	655651.75	-0.00023173026
0	0.6382333	0.6382308	-2.5942914e-10	0.06929645	0.06929645	0	122900.05	122899.56	-4.7579015e-05	655880.6	237643.5	-0.00018807093	237645.97	655879.6	-0.00014777001
0	0.6379451	0.6379426	-2.0177822e-10	0.068942994	0.068942994	0	122844.54	122844.06	-3.8802304e-05	656107.75	237012.83	-0.00022837185	237015.31	656106.8	-6.380978e-05
0	0.6376543	0.63765186	-2.0177822e-10	0.06858929	0.06858929	0	122788.56	122788.086	-4.434549e-05	656335.75	236377.77	-0.000114185925	236380.28	656334.8	-0.00023173026
0	0.6373615	0.63735896	-3.4590553e-10	0.06823581	0.06823581	0	122732.17	122731.695	-6.5594366e-05	656564.2	235739.38	-0.00022501343	235741.89	656563.2	-0.00029218162
0	0.63706744	0.637065	-3.875423e-10	0.06788222	0.06788222	0	122675.56	122675.08	-7.575688e-05	656792.6	235099.45	-0.0002552391	235101.92	656791.6	-0.00030897366
0	0.6367715	0.636769	-1.6014144e-10	0.067528725	0.067528725	0	122618.56	122618.08	-3.2797183e-05	657021.5	234456.05	-0.0001074691	234458.56	657020.5	-0.0001444116
0	0.63647425	0.63647175	-1.6974992e-10	0.06717503	0.06717502	0	122561.32	122560.84	-3.3259115e-05	657250.25	233811.17	-0.00012090274	233813.7	657249.3	-7.05266e-05
0	0.636175	0.6361725	-2.209952e-10	0.06682162	0.06682162	0	122503.695	122503.21	-3.9264236e-05	657479.5	233162.95	-0.00022837185	233165.45	657478.56	-6.045137e-05
0	0.63587403	0.6358716	-2.978631e-10	0.06646813	0.06646813	0	122445.75	122445.266	-5.9127316e-05	657708.8	232512.27	-0.00013433638	232514.86	657707.9	-0.00030561525
0	0.6355707	0.6355682	-1.9216973e-11	0.06611443	0.06611443	0	122387.336	122386.836	-3.6954573e-06	657939	231857.48	-0.00013433638	231860.05	657938	0.00010075228
0	0.63526696	0.63526446	-2.658348e-10	0.06576097	0.06576097	0	122328.85	122328.37	-5.3584132e-05	658168.56	231202.67	-0.0001410532	231205.25	658167.6	-0.00022165502
0	0.6349605	0.63495797	-3.5231118e-10	0.06540734	0.06540734	0	122269.83	122269.34	-6.328471e-05	658398.9	230543.36	-0.00017463729	230545.92	658397.8	-0.00029218162
0	0.6346529	0.63465035	-1.9216972e-10	0.06505392	0.06505392	0	122210.59	122210.09	-3.603071e-05	658629.1	229882.36	-9.4035466e-05	229884.95	658628.1	-0.00015112842
0	0.6343435	0.6343408	1.7615559e-10	0.06470021	0.06470021	0	122151.01	122150.516	3.418298e-05	658859.44	229218.83	0.00017463729	229221.38	658858.44	9.739387e-05
0	0.6340311	0.6340287	-1.4733012e-10	0.06434674	0.06434674	0	122090.87	122090.375	-2.5868201e-05	659090.7	228550.33	-0.00017463729	228552.92	659089.7	-1.6792048e-05
0	0.63371843	0.63371587	-3.1387723e-10	0.06399311	0.06399311	0	122030.65	122030.16	-5.958925e-05	659321.44	227881.8	-0.00032912413	227884.36	659320.44	-0.00014777001
0	0.63340324	0.6334006	-1.2811316e-10	0.06363964	0.06363964	0	121969.96	121969.46	-2.1710812e-05	659552.6	227209.27	-4.0300914e-05	227211.86	659551.6	-7.8922625e-05
0	0.6330847	0.6330821	-3.3949984e-10	0.06328594	0.06328594	0	121908.61	121908.11	-6.651823e-05	659784.9	226531	-0.0002149382	226533.61	659783.94	-0.000278748
0	0.632768	0.63276535	-4.099621e-10	0.06293251	0.06293251	0	121847.63	121847.14	-8.268586e-05	660015.4	225857.16	-0.00030897366	225859.77	660014.4	-0.00032576572
0	0.6324473	0.63244474	-2.3060368e-10	0.06257904	0.06257905	0	121785.9	121785.4	-4.1573894e-05	660247	225176.67	-0.00013433638	225179.28	660246.06	-0.00018345311
0	0.6321248	0.6321221	-1.5373579e-10	0.062225346	0.062225346	0	121723.766	121723.27	-3.0949457e-05	660479.2	224492.81	-0.00016120366	224495.47	660478.1	-8.060183e-05
0	0.63180023	0.63179773	-1.1209901e-10	0.06187191	0.06187191	0	121661.28	121660.79	-2.4020474e-05	660711.56	223806.17	-0.00013433638	223808.81	660710.6	-2.3508866e-05
0	0.63147426	0.63147163	-2.674362e-10	0.061518237	0.061518237	0	121598.516	121598.016	-5.127447e-05	660943.75	223117.62	-0.00017463729	223120.28	660942.75	-0.00023844707
0	0.63114625	0.6311436	-1.8416266e-10	0.06116483	0.06116483	0	121535.35	121534.84	-3.603071e-05	661176.25	222425.84	-0.00012090274	222428.5	661175.3	-9.4035466e-05
0	0.63081497	0.6308124	-1.7615559e-10	0.060811132	0.060811132	0	121471.555	121471.06	-3.5568777e-05	661409.44	221728.89	-0.00013433638	221731.58	661408.56	-0.0001410532
0	0.6304844	0.6304818	-4.003536e-10	0.060457684	0.060457684	0	121407.9	121407.38	-7.0675625e-05	661641.75	221033.75	-0.00024180548	221036.39	661640.8	-0.00032240732
0	0.630151	0.6301485	-2.0337963e-10	0.060104	0.060104	0	121343.695	121343.195	-4.5269353e-05	661874.3	220334.42	-0.00016792047	220337.11	661873.25	-0.00013769479
0	0.6298149	0.6298123	-9.2882035e-11	0.059750553	0.059750553	0	121278.98	121278.48	-1.4781829e-05	662107.75	219630.45	2.6867276e-05	219633.14	662106.8	-0.00012090274
0	0.6294767	0.62947416	-2.1298811e-10	0.059396863	0.059396863	0	121213.85	121213.35	-4.5269353e-05	662341.25	218923.44	-0.0002149382	218926.14	662340.3	-0.00015448683
0	0.6291374	0.6291348	-3.6832531e-10	0.05904341	0.05904341	0	121148.51	121148.016	-6.8827896e-05	662574.5	218215.2	-0.00026867277	218217.9	662573.5	-0.0002485223
0	0.6287958	0.62879324	-1.6334427e-10	0.058689952	0.058689952	0	121082.734	121082.23	-2.3096609e-05	662807.94	217503.38	-0.00016120366	217506.1	662807	-7.388501e-05
0	0.6284522	0.6284495	-3.651225e-10	0.05833626	0.05833626	0	121016.57	121016.07	-6.9289825e-05	663041.7	216788.67	-0.00030225684	216791.42	663040.75	-0.00022501343
0	0.6281066	0.6281039	-1.9537257e-10	0.057982825	0.057982825	0	120950.02	120949.516	-3.972617e-05	663275.44	216070.95	-0.00016120366	216073.69	663274.56	-0.000104110695
0	0.6277588	0.6277562	-3.4750694e-10	0.05762914	0.05762914	0	120883.04	120882.55	-6.836596e-05	663509.44	215350.11	-0.0002888232	215352.84	663508.5	-0.00024180548
0	0.62740934	0.62740666	-2.3060368e-10	0.05727568	0.05727568	0	120815.75	120815.25	-4.5731285e-05	663743.4	214626.84	-5.373455e-05	214629.58	663742.5	-0.0002854648
0	0.627055	0.62705237	-3.4750694e-10	0.056922052	0.056922052	0	120747.516	120747.016	-7.206142e-05	663979.2	213895.08	-0.00030225684	213897.83	663978.2	-0.00023508866
0	0.626703	0.6267004	-3.6352107e-10	0.0565686	0.0565686	0	120679.74	120679.24	-7.021369e-05	664212.44	213169.05	-0.00032240732	213171.81	664211.5	-0.00020822139
0	0.6263475	0.6263448	2.562263e-11	0.056214932	0.056214932	0	120611.27	120610.76	9.2386435e-06	664446.6	212437.03	-7.388501e-05	212439.77	664445.7	0.000114185925
0	0.62598896	0.62598634	-5.765092e-11	0.055861473	0.055861473	0	120542.24	120541.73	-1.4781829e-05	664681.56	211700.22	-1.3433638e-05	211702.98	664680.56	-6.380978e-05
0	0.62562853	0.62562585	-2.4982064e-10	0.05550779	0.05550779	0	120472.84	120472.32	-5.2660267e-05	664916.3	210960.8	-0.0002821064	210963.55	664915.4	-0.00013097796
0	0.62526613	0.62526345	-3.5231117e-11	0.05515433	0.05515433	0	120403.055	120402.555	-1.2010237e-05	665151.1	210218.77	-8.060183e-05	210221.53	665150.2	0
0	0.62490124	0.6248987	-6.886082e-11	0.054800853	0.054800853	0	120332.8	120332.27	-1.2934101e-05	665386.3	209472.77	-2.6867276e-05	209475.56	665385.3	-9.067706e-05
0	0.6245351	0.6245325	-1.9216973e-11	0.05444718	0.05444718	0	120262.29	120261.78	0	665620.94	208725.47	-2.3508866e-05	208728.25	665620	-3.3584095e-06
0	0.6241661	0.62416345	-2.530235e-10	0.054093733	0.054093733	0	120191.234	120190.71	-4.295969e-05	665856.06	207973.61	-0.00016120366	207976.4	665855.1	-0.00020150456
0	0.6237951	0.62379247	-2.9466024e-10	0.053740058	0.053740058	0	120119.8	120119.27	-5.820345e-05	666091.25	207219.11	-0.00022165502	207221.92	666090.3	-0.00021829661
0	0.6234221	0.62341946	-2.978631e-10	0.053386584	0.053386584	0	120047.96	120047.445	-6.0975046e-05	666326.3	206461.78	-0.00030897366	206464.6	666325.4	-0.00016456207
0	0.62304574	0.62304306	-1.2971457e-10	0.053032983	0.053032983	0	119975.48	119974.96	-1.9401152e-05	666562.06	205699.06	-0.0001074691	205701.88	666561.2	-5.4993954e-05
0	0.6226685	0.6226658	5.2846675e-11	0.05267951	0.052679513	0	119902.85	119902.336	7.3909146e-06	666797.2	204935.9	-3.3584096e-05	204938.75	666796.25	8.3960236e-05
0	0.6222886	0.62228596	-1.5053296e-10	0.052325837	0.052325837	0	119829.695	119829.17	-2.5868201e-05	667032.5	204168.73	-0.00014777001	204171.56	667031.56	-6.045137e-05
0	0.6219047	0.62190205	-2.0978529e-10	0.051972385	0.051972385	0	119755.766	119755.25	-4.5269353e-05	667268.75	203394.98	-0.0002485223	203397.83	667267.9	-7.7243414e-05
0	0.6215214	0.6215187	-3.3949984e-10	0.051618714	0.051618714	0	119681.95	119681.43	-6.9289825e-05	667503.8	202623.38	-0.00024180548	202626.2	667502.9	-0.00024180548
0	0.6211345	0.62113184	-1.7135135e-10	0.051265247	0.051265247	0	119607.46	119606.94	-3.6954574e-05	667739.3	201846.19	-0.0001074691	201849.05	667738.4	-0.00014777001
0	0.62074554	0.6207428	-4.5159887e-10	0.05091176	0.05091176	0	119532.54	119532.03	-8.499552e-05	667974.8	201066.1	-0.00037614186	201068.95	667973.9	-0.00026531436
0	0.6203535	0.6203508	-1.5854003e-10	0.050558098	0.050558098	0	119457.07	119456.55	-2.4944336e-05	668210.7	200281.42	-2.6867276e-05	200284.3	668209.8	-0.0001779957
0	0.6199597	0.61995685	-7.846931e-11	0.050204635	0.050204635	0	119381.21	119380.71	-2.124888e-05	668446.3	199494.33	2.6867276e-05	199497.22	668445.4	-0.00013097796
0	0.6195633	0.6195605	-2.1779237e-10	0.049850978	0.049850978	0	119304.9	119304.375	-3.6954574e-05	668682	198703.67	-7.388501e-05	198706.55	668681.1	-0.00022837185
0	0.61916447	0.6191617	-1.329174e-10	0.049497493	0.049497493	0	119228.11	119227.57	-2.4944336e-05	668917.8	197909.56	-0.00012090274	197912.44	668916.9	-5.7092962e-05
0	0.61876345	0.6187607	-1.2651175e-10	0.049143907	0.049143907	0	119150.875	119150.35	-2.2172744e-05	669153.4	197112.53	-6.716819e-05	197115.42	669152.5	-7.7243414e-05
0	0.61835974	0.61835706	-3.218843e-10	0.04879043	0.04879043	0	119073.14	119072.62	-6.005118e-05	669389.25	196311.58	-0.00013433638	196314.47	669388.25	-0.00032912413
0	0.61795366	0.6179509	-1.3131599e-10	0.048436765	0.04843676	0	118994.94	118994.414	-2.3096609e-05	669624.94	195507.23	-2.0150457e-05	195510.17	669624	-0.00013769479
0	0.61754483	0.61754215	-6.0853746e-11	0.048083294	0.048083294	0	118916.22	118915.695	-1.0855406e-05	669860.7	194699.19	-4.7017733e-05	194702.12	669859.8	-4.0300914e-05
0	0.617134	0.6171312	-2.8184893e-10	0.04772964	0.04772964	0	118837.086	118836.555	-6.0513114e-05	670096.4	193888.2	-0.00024180548	193891.1	670095.5	-0.00023508866
0	0.6167204	0.61671776	-3.427027e-10	0.047376156	0.047376156	0	118757.47	118756.945	-6.5594366e-05	670332	193073.73	-0.00026867277	193076.64	670331.06	-0.00025859752
0	0.61630446	0.6163017	-1.5693861e-10	0.047022674	0.047022674	0	118677.37	118676.85	-2.8177863e-05	670567.56	192255.78	2.6867276e-05	192258.7	670566.6	-0.00025859752
0	0.61588603	0.6158834	-1.9216973e-11	0.046669014	0.046669014	0	118596.805	118596.266	-4.1573894e-06	670803.06	191434.48	6.716819e-05	191437.45	670802.1	-0.00012090274
0	0.615465	0.61546224	-1.9857539e-10	0.046315543	0.046315543	0	118515.72	118515.19	-3.8802304e-05	671038.5	190609.48	-0.00016792047	190612.4	671037.7	-0.00011082751
0	0.61504114	0.6150384	-1.3612023e-10	0.04596189	0.04596189	0	118434.1	118433.56	-2.771593e-05	671274.06	189780.61	-6.045137e-05	189783.58	671273.2	-0.00016456207
0	0.61461496	0.6146122	-4.1636775e-10	0.045608405	0.045608405	0	118352.03	118351.5	-8.3378756e-05	671509.25	188948.7	-0.0003156905	188951.64	671508.44	-0.0003156905
0	0.61418575	0.614183	-5.7330635e-10	0.045254823	0.045254823	0	118269.39	118268.875	-0.00011271145	671744.7	188112.53	-0.00053734554	188115.48	671743.75	-0.00037278346
0	0.6137544	0.61375165	-3.8113662e-10	0.04490133	0.04490133	0	118186.32	118185.78	-7.390915e-05	671980	187273.16	-0.00029218162	187276.1	671979.1	-0.0002518807
0	0.61331993	0.61331713	-2.2119537e-10	0.04454769	0.04454769	0	118102.66	118102.125	-4.434549e-05	672215.25	186429.69	-0.0002149382	186432.66	672214.4	-0.0001410532
0	0.61288327	0.61288047	-1.233089e-10	0.044194214	0.044194214	0	118018.57	118018.05	-2.3789507e-05	672450.1	185583.4	-0.00012761955	185586.36	672449.3	-5.7092962e-05
0	0.6124436	0.6124409	-4.227734e-10	0.043840572	0.043840572	0	117933.92	117933.39	-7.529494e-05	672685.2	184732.9	-0.0003156905	184735.86	672684.4	-0.00030561525
0	0.6120014	0.6119987	4.323819e-11	0.04348707	0.04348707	0	117848.78	117848.25	1.03934735e-05	672920	183879.1	2.6867276e-05	183882.08	672919.1	6.716819e-05
0	0.61155564	0.611553	-1.6494568e-10	0.043133564	0.043133564	0	117762.94	117762.41	-2.65611e-05	673155	183020.05	-8.731864e-05	183023.03	673154.2	-0.0001074691
0	0.61110854	0.6111059	-2.3540792e-10	0.04277993	0.04277993	0	117676.85	117676.32	-4.6193218e-05	673389.3	182159.7	-0.00016456207	182162.72	673388.5	-0.00018135412
0	0.61065835	0.61065567	-1.9377115e-10	0.042426426	0.042426426	0	117590.14	117589.62	-3.302815e-05	673623.5	181295.12	-0.00027538958	181298.1	673622.75	3.3584095e-06
0	0.6102035	0.61020076	-2.113867e-10	0.04207281	0.04207281	0	117502.55	117502.016	-3.8802304e-05	673858.6	180423.17	-0.00011754433	180426.17	673857.9	-0.00017127888
0	0.6097484	0.6097457	-5.316696e-10	0.041719303	0.041719303	0	117414.914	117414.41	-0.0001062444	674092.2	179552.53	-0.00048361096	179555.53	674091.44	-0.00034255776
0	0.6092892	0.6092866	-1.7615559e-10	0.041365754	0.041365754	0	117326.52	117325.99	-3.187332e-05	674326.3	178675.72	-0.0002485223	178678.73	674325.5	-1.3433638e-05
0	0.6088272	0.6088244	-3.0106592e-10	0.041012242	0.041012242	0	117237.51	117236.984	-5.7972487e-05	674560.3	177794.62	-0.0002552391	177797.66	674559.56	-0.00020150456
0	0.6083621	0.60835934	-4.21172e-10	0.040658616	0.040658616	0	117147.96	117147.43	-8.1761995e-05	674793.94	176909.89	-0.0003895755	176912.92	674793.2	-0.00022837185
0	0.6078946	0.60789186	-2.4021216e-10	0.040305123	0.040305123	0	117057.945	117057.42	-3.94952e-05	675027.56	176021.84	-0.00023173026	176024.86	675026.8	-9.739387e-05
0	0.6074239	0.60742116	-2.113867e-10	0.0399515	0.0399515	0	116967.3	116966.77	-3.5568777e-05	675260.7	175129.7	3.3584095e-06	175132.72	675259.94	-0.000278748
0	0.6069504	0.60694766	-4.435918e-10	0.039597988	0.039597988	0	116876.13	116875.61	-8.684325e-05	675493.7	174233.86	-0.00045002686	174236.89	675492.94	-0.00023173026
0	0.60647386	0.6064712	-1.6174286e-10	0.039244473	0.039244473	0	116784.37	116783.84	-3.3952016e-05	675726.6	173333.83	-0.00020150456	173336.86	675725.8	-4.365932e-05
0	0.60599315	0.60599035	-1.7455418e-10	0.03889085	0.03889085	0	116691.77	116691.26	-3.6954574e-05	675959.8	172427.44	-0.00017463729	172430.45	675959	-0.00010075228
0	0.605512	0.60550934	-1.8416266e-10	0.038537327	0.038537327	0	116599.15	116598.61	-3.603071e-05	676191.7	171522.02	-0.00020486298	171525.1	676190.9	-5.373455e-05
0	0.6050263	0.60502356	-8.967921e-11	0.03818373	0.03818373	0	116505.6	116505.08	-1.8015355e-05	676423.8	170609.9	-8.060183e-05	170612.94	676423.06	-5.7092962e-05
0	0.6045377	0.604535	-2.7063904e-10	0.037830207	0.037830207	0	116411.54	116411.02	-5.0812538e-05	676655.7	169694.12	-0.00020150456	169697.19	676654.94	-0.00019478775
0	0.60404605	0.6040433	-6.4056577e-10	0.03747659	0.03747659	0	116316.85	116316.32	-0.00012102623	676887.3	168774	-0.00053734554	168777.08	676886.6	-0.0004198012
0	0.6035493	0.60354656	-3.2668854e-10	0.03712316	0.03712316	0	116221.195	116220.67	-6.443954e-05	677119.5	167846.47	-0.00024180548	167849.53	677118.6	-0.0002518807
0	0.6030531	0.60305035	-2.2419802e-10	0.036769547	0.036769547	0	116125.64	116125.125	-4.4114524e-05	677349.9	166921.36	-0.00022165502	166924.44	677349.06	-0.00012090274
0	0.60255164	0.60254896	-3.7473097e-10	0.03641604	0.03641604	0	116029.1	116028.58	-7.529494e-05	677580.6	165988.64	-0.00044666845	165991.7	677579.94	-0.00015112842
0	0.60204744	0.6020446	-8.327355e-11	0.03606243	0.03606243	0	115931.984	115931.46	-1.6398591e-05	677811.1	165052.14	-0.000114185925	165055.19	677810.44	-1.3433638e-05
0	0.60153943	0.6015367	-9.448345e-11	0.0357089	0.0357089	0	115834.16	115833.65	-2.5406269e-05	678041.44	164110.72	-2.0150457e-05	164113.77	678040.7	-0.00016792047
0	0.601029	0.60102624	-2.3540792e-10	0.035355363	0.035355363	0	115735.88	115735.36	-4.5731285e-05	678271.25	163166.3	-0.00016792047	163169.36	678270.5	-0.00016456207
0	0.6005149	0.60051215	-1.3852235e-10	0.03500176	0.03500176	0	115636.88	115636.36	-2.8177863e-05	678500.75	162217.02	-0.0002485223	162220.11	678500.06	2.6867276e-05
0	0.5999977	0.59999496	-1.5133367e-10	0.034648225	0.034648225	0	115537.28	115536.766	-2.6099167e-05	678729.75	161263.83	-0.00020822139	161266.9	678729.1	0
0	0.5994767	0.599474	-2.2419802e-10	0.034294646	0.034294646	0	115436.98	115436.45	-4.0188097e-05	678958.8	160305.52	-0.00016792047	160308.61	678958.1	-0.00013769479
0	0.59895283	0.5989502	-1.44928e-10	0.03394111	0.03394111	0	115336.1	115335.56	-2.65611e-05	679187.1	159343.81	-0.00015448683	159346.88	679186.44	-6.045137e-05
0	0.59842485	0.59842217	3.0426873e-11	0.03358751	0.033587515	0	115234.42	115233.9	7.8528465e-06	679415.3	158376.38	4.7017733e-05	158379.45	679414.56	1.3433638e-05
0	0.5978944	0.5978917	5.765092e-11	0.033234064	0.033234064	0	115132.28	115131.74	1.03934735e-05	679642.94	157406.11	0.0001444116	157409.22	679642.2	-7.388501e-05
0	0.59736043	0.59735787	-2.8024753e-11	0.032880485	0.032880485	0	115029.48	115028.96	-3.4644913e-06	679869.94	156431.69	4.365932e-05	156434.78	679869.25	-6.045137e-05
0	0.5968227	0.59682	-4.1636775e-10	0.03252696	0.032526955	0	114925.9	114925.375	-8.153103e-05	680097	155451.67	-0.00037950027	155454.75	680096.3	-0.00023173026
0	0.5962818	0.59627914	-2.0898458e-10	0.03217337	0.03217337	0	114821.76	114821.24	-4.0188097e-05	680323.25	154468.23	-0.00024180548	154471.33	680322.6	-6.716819e-05
0	0.5957369	0.5957343	-1.8416265e-11	0.03181982	0.03181982	0	114716.83	114716.31	-5.0812537e-06	680549.25	153479.44	1.3433638e-05	153482.52	680548.5	-5.373455e-05
0	0.59518915	0.5951865	-3.2909067e-10	0.031466257	0.031466257	0	114611.35	114610.83	-6.628727e-05	680774.6	152487.1	-0.00022165502	152490.19	680773.94	-0.0002821064
0	0.5946372	0.59463453	-9.368274e-11	0.031112673	0.031112673	0	114505.06	114504.55	-1.709149e-05	680999.75	151489.27	-0.00012426115	151492.38	680999.06	2.0150457e-05
0	0.5940797	0.59407705	-4.8122506e-10	0.030759118	0.030759115	0	114397.71	114397.19	-8.822905e-05	681225.06	150483.4	-0.00051719503	150486.5	681224.44	-0.00018471252
0	0.59352225	0.5935196	-2.1298811e-10	0.030405566	0.030405566	0	114290.375	114289.87	-4.0880997e-05	681448.5	149479.62	-0.0002115798	149482.7	681447.9	-0.000104110695
0	0.5929609	0.59295833	-3.7473097e-10	0.030052	0.030052	0	114182.27	114181.766	-7.229239e-05	681671.7	148470.52	-0.00040636756	148473.61	681671	-0.00017463729
0	0.59239465	0.5923921	-3.9715078e-10	0.029698431	0.029698431	0	114073.24	114072.73	-7.321625e-05	681894.6	147454.84	-0.00043659323	147457.95	681894.06	-0.00018135412
0	0.591825	0.5918224	-3.9635006e-10	0.029344976	0.029344976	0	113963.53	113963.016	-7.206142e-05	682117.2	146434.77	-0.00036270823	146437.86	682116.56	-0.00020150456
0	0.5912509	0.5912483	-4.003536e-11	0.028991412	0.028991412	0	113852.984	113852.484	-1.4319898e-05	682339.1	145409.02	3.3584095e-06	145412.1	682338.5	-0.00012090274
0	0.59067404	0.5906714	8.5675675e-11	0.02863784	0.02863784	0	113741.89	113741.4	1.062444e-05	682560.2	144380.27	-8.060183e-05	144383.38	682559.7	0.00015784525
0	0.59008807	0.59008557	-1.2651175e-10	0.0282843	0.0282843	0	113629.08	113628.58	-2.2172744e-05	682782.9	143337.4	-0.00015448683	143340.5	682782.4	-3.3584096e-05
0	0.5895063	0.5895037	-3.338949e-10	0.027930737	0.027930737	0	113517.04	113516.54	-6.420857e-05	683001.6	142304.1	-0.00034927457	142307.2	683001.1	-0.00019478775
0	0.5889194	0.5889168	-6.565799e-11	0.027577166	0.027577166	0	113404.02	113403.52	-1.6629558e-05	683220.56	141263.47	-0.00024180548	141266.58	683220	0.000104110695
0	0.5883268	0.5883242	-2.8425107e-10	0.02722359	0.02722359	0	113289.91	113289.39	-5.7741523e-05	683439.44	140214.94	-0.0003156905	140218.03	683438.9	-0.00012426115
0	0.5877303	0.58772767	-2.3540792e-10	0.026870029	0.026870029	0	113175.055	113174.555	-5.011964e-05	683657.75	139161.67	-0.0002149382	139164.77	683657.2	-0.00015784525
0	0.58712965	0.58712703	-2.113867e-10	0.026516492	0.026516492	0	113059.38	113058.88	-4.434549e-05	683875.44	138102.98	-0.00036606664	138106.08	683874.9	2.3508866e-05
0	0.586525	0.5865225	-2.8024753e-12	0.026162919	0.026162919	0	112942.96	112942.45	1.3857965e-06	684092.3	137039.69	-7.7243414e-05	137042.78	684091.6	7.7243414e-05
0	0.5859167	0.5859142	-1.7815735e-10	0.025809357	0.025809357	0	112825.82	112825.33	-3.3259115e-05	684308.56	135971.8	-0.00018135412	135974.89	684308.06	-8.731864e-05
0	0.5853032	0.5853007	-7.046223e-11	0.02545588	0.02545588	0	112707.664	112707.18	-1.40889315e-05	684524.25	134897.05	-0.00013433638	134900.11	684523.8	5.037614e-05
0	0.5846875	0.58468497	2.4821924e-11	0.025102317	0.025102317	0	112589.125	112588.625	-1.1548304e-07	684738.9	133820.53	5.373455e-05	133823.62	684738.4	-2.3508866e-05
0	0.5840665	0.58406395	2.4021217e-12	0.024748746	0.024748746	0	112469.55	112469.05	9.238643e-07	684953.1	132736.98	-0.000114185925	132740.06	684952.6	0.00013769479
0	0.58344114	0.58343863	-2.001768e-10	0.024395214	0.024395214	0	112349.12	112348.625	-3.3259115e-05	685166.4	131648.16	-0.00032240732	131651.23	685165.8	8.060183e-05
0	0.5828126	0.5828101	7.046223e-11	0.024041647	0.024041647	0	112228.08	112227.58	1.3396033e-05	685378.9	130555.664	6.716819e-06	130558.734	685378.44	0.00011082751
0	0.5821793	0.5821768	1.44928e-10	0.023688078	0.023688078	0	112106.12	112105.65	2.6330134e-05	685590.6	129457.4	0.00013433638	129460.48	685590.1	0.000104110695
0	0.58154124	0.58153874	2.562263e-11	0.023334507	0.023334507	0	111983.27	111982.79	3.2335251e-06	685801.56	128353.09	-3.3584096e-05	128356.16	685801.1	6.380978e-05
0	0.58090025	0.58089775	-3.795352e-10	0.022980945	0.022980945	0	111859.84	111859.35	-7.714267e-05	686011.7	127245.67	-0.00047017733	127248.76	686011.1	-0.000104110695
0	0.58025336	0.58025086	-1.2290856e-10	0.022627411	0.022627411	0	111735.26	111734.78	-2.65611e-05	686220.94	126130.74	-0.00026195592	126133.79	686220.56	8.731864e-05
0	0.5796034	0.57960093	-4.0195502e-10	0.022273844	0.022273844	0	111610.11	111609.63	-8.112684e-05	686429.4	125012.39	-0.00048025255	125015.46	686428.94	-0.0001444116
0	0.578945	0.57894254	-1.9897574e-10	0.021920286	0.021920286	0	111483.33	111482.85	-3.724328e-05	686637.94	123881.98	-0.00023508866	123885.016	686637.5	-0.00010075228
0	0.5782899	0.57828754	-2.3861074e-10	0.021566782	0.021566782	0	111357.195	111356.71	-4.665515e-05	686843.25	122759.664	-0.00023844707	122762.72	686842.9	-0.00012090274
0	0.57762617	0.57762367	-1.8576407e-10	0.021213213	0.021213213	0	111229.37	111228.9	-3.5164587e-05	687049	121624.59	-0.00015784525	121627.65	687048.6	-0.00011082751
0	0.5769578	0.5769554	-1.8816619e-10	0.020859651	0.020859651	0	111100.67	111100.2	-3.764747e-05	687253.75	120484.195	-0.0002485223	120487.234	687253.3	3.3584095e-06
0	0.57628447	0.576282	-2.2820155e-10	0.020506121	0.020506121	0	110971	110970.55	-4.9888673e-05	687457.7	119337.57	-0.00019478775	119340.59	687457.4	-0.00016456207
0	0.57560766	0.5756052	-2.1699166e-10	0.020152561	0.020152561	0	110840.67	110840.22	-4.024584e-05	687660.3	118187.34	-0.0002821064	118190.36	687659.94	-4.1980118e-05
0	0.5749257	0.57492334	-2.1098635e-10	0.019798994	0.019798994	0	110709.36	110708.89	-3.6954574e-05	687862.25	117030.71	-0.00020150456	117033.734	687861.9	-0.00012090274
0	0.5742385	0.5742361	1.6534604e-10	0.019445425	0.019445425	0	110577.02	110576.56	2.7253998e-05	688063.1	115867.664	3.3584096e-05	115870.68	688062.9	0.00022165502
0	0.5735476	0.57354516	-2.0738317e-10	0.019091865	0.019091865	0	110443.984	110443.53	-4.111196e-05	688262.75	114700.85	-0.0003190489	114703.86	688262.5	6.716819e-06
0	0.572851	0.5728486	-3.427027e-10	0.018738296	0.018738296	0	110309.84	110309.38	-6.420857e-05	688461.6	113526.77	-0.00023508866	113529.76	688461.3	-0.0002854648
0	0.57215047	0.572148	-1.5213436e-11	0.018384773	0.018384773	0	110174.945	110174.484	-1.8477286e-06	688659.2	112348.42	-0.0001444116	112351.41	688658.9	0.00011754433
0	0.5714453	0.5714429	-3.9715078e-10	0.018031215	0.018031215	0	110039.16	110038.7	-7.887492e-05	688855.5	111164.86	-0.00041644278	111167.84	688855.2	-0.00018807093
0	0.5707344	0.57073206	-9.088027e-11	0.017677682	0.017677682	0	109902.266	109901.82	-2.0209533e-05	689051.06	109974.164	-0.0001410532	109977.12	689050.7	-6.716819e-06
0	0.57001907	0.57001674	-3.8033594e-11	0.017324112	0.017324112	0	109764.52	109764.06	-8.314779e-06	689245.2	108778.484	4.0300914e-05	108781.45	689244.94	-0.00010075228
0	0.5692991	0.56929684	-8.247284e-11	0.016970554	0.016970554	0	109625.875	109625.445	-1.6745042e-05	689438.2	107577.62	-0.0001074691	107580.57	689437.9	0
0	0.56857127	0.568569	-1.9136902e-10	0.016617032	0.016617032	0	109485.72	109485.3	-3.845585e-05	689630.6	106366.18	-0.0002149382	106369.13	689630.5	-7.7243414e-05
0	0.5678434	0.5678411	-2.9025637e-10	0.01626348	0.01626348	0	109345.56	109345.13	-5.473896e-05	689820.6	105157.11	-0.00034255776	105160.04	689820.44	-8.3960236e-05
0	0.56710744	0.5671052	-1.4132483e-10	0.01590991	0.01590991	0	109203.84	109203.42	-2.6214651e-05	690010.2	103937.305	-0.00012761955	103940.234	690009.94	-8.060183e-05
0	0.5663673	0.5663651	-2.9225813e-11	0.015556336	0.015556336	0	109061.336	109060.914	-1.0970889e-06	690198.2	102713.17	-0.00013433638	102716.08	690198	0.00011754433
0	0.56561905	0.5656169	-3.1027406e-10	0.015202783	0.015202783	0	108917.26	108916.83	-6.2129875e-05	690385.56	101478.266	-0.00022837185	101481.17	690385.4	-0.00024180548
0	0.56487066	0.56486845	-3.9114548e-10	0.014849216	0.014849216	0	108773.125	108772.72	-7.558365e-05	690570.44	100245.59	-0.00024180548	100248.48	690570.3	-0.0003559914
0	0.5641142	0.56411207	-1.9377115e-10	0.014495706	0.014495706	0	108627.48	108627.05	-3.6723606e-05	690754.7	99002.414	-0.00014944922	99005.29	690754.5	-0.000114185925
0	0.56335306	0.56335086	-2.4821922e-10	0.01414215	0.01414215	0	108480.9	108480.484	-4.9080292e-05	690937.44	97753.96	-0.000104110695	97756.83	690937.3	-0.0002518807
0	0.5625857	0.56258357	-1.2170749e-10	0.013788583	0.013788583	0	108333.125	108332.71	-2.5175303e-05	691119	96498.1	-0.00029554003	96500.96	691118.9	0.0001074691
0	0.56181407	0.56181186	-1.9697398e-10	0.0134350145	0.0134350145	0	108184.53	108184.125	-3.5106845e-05	691298.8	95237.94	-0.00019142934	95240.79	691298.7	-8.060183e-05
0	0.5610362	0.56103414	-1.4733012e-10	0.013081459	0.013081459	0	108034.766	108034.36	-2.8120121e-05	691477.3	93970.57	-0.00026363516	93973.4	691477.25	1.3433638e-05
0	0.5602529	0.5602508	-5.0444555e-11	0.01272794	0.01272794	0	107883.93	107883.516	-1.1144113e-05	691654.44	92696.85	-0.00019142934	92699.68	691654.3	0.00011082751
0	0.559463	0.559461	1.4813083e-11	0.012374373	0.012374373	0	107731.81	107731.42	3.3490082e-06	691830.2	91415.23	-9.739387e-05	91418.02	691830.06	0.0001410532
0	0.5586702	0.55866814	1.2410962e-11	0.012020824	0.012020824	0	107579.14	107578.75	4.734805e-06	692003.9	90131.555	-0.00015952445	90134.336	692003.8	0.00020150456
0	0.5578697	0.55786765	-2.6263197e-10	0.011667253	0.011667253	0	107425.01	107424.61	-4.925352e-05	692176.44	88838.32	-0.00033919935	88841.086	692176.4	-3.0225685e-05
0	0.5570641	0.55706203	-2.2419802e-11	0.011313706	0.011313706	0	107269.875	107269.484	-4.734805e-06	692347.3	87539.62	-0.00012090274	87542.4	692347.3	6.380978e-05
0	0.55625224	0.5562503	-1.5333543e-10	0.010960143	0.010960143	0	107113.54	107113.164	-3.256622e-05	692516.7	86233.78	-7.556421e-05	86236.52	692516.6	-0.00015112842
0	0.55543554	0.5554335	-3.3949984e-10	0.0106066065	0.0106066065	0	106956.28	106955.9	-6.432406e-05	692684.25	84922.85	-0.00018471252	84925.57	692684.1	-0.00029889843
0	0.55461055	0.5546087	-2.9626168e-10	0.010253061	0.010253061	0	106797.41	106797.05	-5.4161548e-05	692850.44	83601.664	-0.00019142934	83604.375	692850.44	-0.00022837185
0	0.55378354	0.5537816	-9.728593e-11	0.009899497	0.009899497	0	106638.16	106637.79	-2.0902431e-05	693014.3	82279.95	-0.0002149382	82282.66	693014.3	4.365932e-05
0	0.5529484	0.55294657	-2.978631e-10	0.0095459325	0.0095459325	0	106477.35	106476.99	-5.5316377e-05	693176.8	80948.36	-0.000278748	80951.03	693176.8	-0.00014777001
0	0.55210763	0.5521057	-3.711278e-10	0.009192387	0.009192387	0	106315.445	106315.08	-6.755758e-05	693337.5	79610.54	-0.0003106529	79613.195	693337.5	-0.0002149382
0	0.55126065	0.55125886	-5.6850213e-10	0.008838841	0.008838841	0	106152.336	106151.99	-0.00010890051	693496.4	78265.9	-0.0002770688	78268.55	693496.44	-0.00054742076
0	0.55040723	0.5504055	-1.7295276e-10	0.008485277	0.008485277	0	105988.016	105987.664	-2.9101726e-05	693653.44	76914.086	-0.00021829661	76916.71	693653.5	-6.045137e-05
0	0.54954815	0.5495463	-3.667239e-10	0.00813174	0.00813174	0	105822.58	105822.24	-7.0675625e-05	693808.6	75556.23	-0.00033752015	75558.836	693808.7	-0.00016792047
0	0.54868233	0.54868054	-4.756201e-10	0.007778168	0.007778168	0	105655.85	105655.51	-9.7121236e-05	693961.94	74190.75	-0.0006246642	74193.336	693962	-0.0001444116
0	0.5478105	0.54780877	-2.882546e-10	0.007424608	0.007424608	0	105487.97	105487.64	-4.9888673e-05	694113.3	72818.86	-0.00020822139	72821.42	694113.44	-0.00015784525
0	0.5469321	0.5469304	-1.0489264e-10	0.007071075	0.007071075	0	105318.82	105318.49	-2.2981125e-05	694262.7	71439.69	-0.00011754433	71442.234	694262.8	-2.6867276e-05