//mumax 3.10 [windows_amd64 go1.11.6(gc) CUDA-11.0]
//GPU info: NVIDIA GeForce RTX 3090(24575MB), CUDA Driver 12.1, cc=8.6, using cc=80 PTX
//(c) Arne Vansteenkiste, Dynamat LAB, Ghent University, Belgium
//This is free software without any warranty. See license.txt
//********************************************************************//
//  If you use mumax in any work or publication,                      //
//  we kindly ask you to cite the references in references.bib        //
//********************************************************************//
//output directory: r1;p0.1;a3.4000000000000003e-07;l2.3000000000000002e-07;s2.out/
randSeed(2)
ThermSeed(2)
resolution := 2e-09
zResolution := 5e-09
a := 3.4000000000000003e-07
gridSize := 340
gridDepth := 5
SetCellsize(resolution, resolution, zResolution)
SetGridsize(gridSize, gridSize, gridDepth)
SetPBC(16, 16, 0)
//resizing...
Msat = 700e3
Aex = 13e-12
alpha = 0.2
Bmax := 0.1
Bstep := Bmax / 500.0
TableAdd(B_ext)
TableAdd(m_full)
islandWidth := 8e-08
islandLength := 2.3000000000000002e-07
ellipseConstant := 1.1500000000000002e-08
hIsland := Universe().Inverse()
vIsland := Universe().Inverse()
vIslands := Universe().Inverse()
hIslands := Universe().Inverse()
hIsland = rect(islandLength-2*ellipseConstant, islandWidth)
hIsland = hIsland.add(ellipse(ellipseConstant*2, islandWidth).transl(islandLength/2-ellipseConstant, 0, 0))
hIsland = hIsland.add(ellipse(ellipseConstant*2, islandWidth).transl(-islandLength/2+ellipseConstant, 0, 0))
hIsland = hIsland.add(rect(3.846358319830962e-09, 1.4907309624860035e-09).transl(-1.6056527221004e-08, -4e-08, 0))
hIsland = hIsland.sub(rect(8.533928502696368e-09, -2.553722405433495e-09).transl(-2.460206522272339e-08, -4e-08, 0))
hIsland = hIsland.add(rect(9.49213571442486e-09, 1.9643299454176365e-09).transl(2.9717076826623277e-08, -4e-08, 0))
hIsland = hIsland.sub(rect(8.06325494677295e-09, -2.3196408200710676e-09).transl(-7.595619406001539e-08, -4e-08, 0))
hIsland = hIsland.sub(rect(5.947788162284345e-09, -2.9126516600720787e-09).transl(3.513865612576849e-09, -4e-08, 0))
hIsland = hIsland.sub(rect(5.2345989102121855e-09, -1.2904340815754675e-09).transl(6.1801314116483e-08, -4e-08, 0))
hIsland = hIsland.add(rect(3.0186784479097383e-09, 5.224729341859282e-09).transl(-7.124837717011126e-08, -4e-08, 0))
hIsland = hIsland.add(rect(7.340646681169436e-09, 1.5131189182726825e-09).transl(-7.880605403504201e-08, -4e-08, 0))
hIsland = hIsland.sub(rect(3.1417317428587597e-09, -8.772997966229768e-10).transl(7.877318456114159e-08, -4e-08, 0))
hIsland = hIsland.add(rect(4.669613899188007e-09, 1.1843511933417872e-09).transl(7.58650605847362e-08, -4e-08, 0))
hIsland = hIsland.sub(rect(2.3155626494137744e-09, -2.6280088238550786e-09).transl(4.913054992824228e-09, -4e-08, 0))
hIsland = hIsland.add(rect(2.717747560615706e-09, 4.246519642235381e-10).transl(-6.085758185480359e-08, -4e-08, 0))
hIsland = hIsland.sub(rect(6.9376503489334375e-09, -2.6656033494308764e-09).transl(-5.5911300407351564e-08, -4e-08, 0))
hIsland = hIsland.sub(rect(2.0489229509593526e-09, -1.3986824884371594e-09).transl(9.046722516538343e-08, -4e-08, 0))
hIsland = hIsland.add(rect(6.046067203984494e-09, 2.7807683828324917e-09).transl(-9.191844742873741e-08, -4e-08, 0))
hIsland = hIsland.sub(rect(6.473762592783237e-09, -2.466568376278904e-09).transl(3.415747257483253e-08, -4e-08, 0))
hIsland = hIsland.sub(rect(2.1880943157068754e-09, -2.832370948615406e-09).transl(-5.8433147429634786e-08, -4e-08, 0))
hIsland = hIsland.sub(rect(2.482278706262797e-09, -8.367575050577438e-10).transl(-9.084959524805747e-08, -4e-08, 0))
hIsland = hIsland.sub(rect(9.859668162293652e-09, -1.6427480126374538e-09).transl(-1.004931442965538e-07, -4e-08, 0))
hIsland = hIsland.add(rect(6.07569658246079e-09, 1.9262509538523777e-09).transl(3.775450119249014e-09, -4e-08, 0))
hIsland = hIsland.sub(rect(9.23964275158673e-09, -1.2822637477370687e-10).transl(-8.40177820865817e-08, -4e-08, 0))
hIsland = hIsland.sub(rect(9.541010214039344e-09, -3.46208059576502e-09).transl(1.8574703669411833e-08, -4e-08, 0))
hIsland = hIsland.add(rect(7.85600516360274e-09, 4.2042281547920425e-09).transl(1.1041486507391145e-07, -3.196115619933332e-08, 0))
hIsland = hIsland.sub(rect(2.2788604695071442e-09, -2.4272332340754298e-09).transl(-6.43048642406387e-08, -4e-08, 0))
hIsland = hIsland.add(rect(9.438211468310541e-09, 1.5347084251698802e-09).transl(-1.0351367340333347e-07, -3.9999971725969785e-08, 0))
hIsland = hIsland.add(rect(9.57068760410868e-09, 8.695836899464406e-10).transl(-1.0871785111269675e-07, -3.5645646022221665e-08, 0))
hIsland = hIsland.add(rect(4.6465122590394945e-09, 2.5455389419949695e-09).transl(-5.6685411089977104e-08, -4e-08, 0))
hIsland = hIsland.add(rect(6.873632660871431e-09, 2.7917671233617465e-10).transl(-7.066854558931461e-08, -4e-08, 0))
hIsland = hIsland.sub(rect(3.801975728318922e-09, -3.666112125357735e-10).transl(-1.64027745024782e-09, -4e-08, 0))
hIsland = hIsland.add(rect(3.2974287172224114e-09, 4.686971069768923e-10).transl(6.752629540770867e-08, -4e-08, 0))
hIsland = hIsland.add(rect(9.852365198148853e-09, 4.956865450798777e-09).transl(-7.284493414951819e-08, -4e-08, 0))
hIsland = hIsland.sub(rect(6.235029664940512e-09, -1.561473163352016e-09).transl(-9.571652126732761e-09, -4e-08, 0))
hIsland = hIsland.add(rect(4.190523395286327e-09, 9.114959564007611e-10).transl(-7.737114513323228e-08, -4e-08, 0))
hIsland = hIsland.add(rect(4.514986674596865e-09, 6.44682572062911e-10).transl(-8.310302441272573e-08, -4e-08, 0))
hIsland = hIsland.add(rect(6.168113952087565e-09, 3.6458476234628825e-10).transl(9.517317905811373e-09, -4e-08, 0))
hIsland = hIsland.add(rect(2.37636051994813e-09, 1.8687276210334833e-09).transl(-1.490716194345529e-08, -4e-08, 0))
hIsland = hIsland.sub(rect(9.2221151761931e-09, -6.216663494173675e-10).transl(-4.168041473985226e-08, -4e-08, 0))
hIsland = hIsland.sub(rect(3.3951131607685776e-09, -1.630045951691982e-09).transl(-4.00620322995646e-08, -4e-08, 0))
hIsland = hIsland.add(rect(9.848736075704444e-09, 3.0202471138387905e-09).transl(1.0390125532190486e-07, -3.9975643876482445e-08, 0))
hIsland = hIsland.sub(rect(7.75300435013884e-09, -3.707680722171997e-09).transl(-9.48912912506353e-08, -4e-08, 0))
hIsland = hIsland.sub(rect(6.619890339575873e-09, -1.7593370937314732e-10).transl(-5.767671153716515e-08, -4e-08, 0))
hIsland = hIsland.sub(rect(3.927058554998636e-09, -1.6297893811485e-09).transl(2.3807411356343377e-08, -4e-08, 0))
hIsland = hIsland.add(rect(8.881056517777236e-09, 5.702348287904615e-10).transl(-7.793375306654115e-08, -4e-08, 0))
hIsland = hIsland.sub(rect(3.6613432911800195e-09, -6.458694557961918e-10).transl(1.0938808747409784e-08, -4e-08, 0))
hIsland = hIsland.sub(rect(5.745266517265068e-09, -9.659133023687591e-10).transl(-2.573090128888574e-08, -4e-08, 0))
hIsland = hIsland.add(rect(6.222298898205547e-09, 7.019097821634e-10).transl(2.336982555030757e-08, -4e-08, 0))
hIsland = hIsland.add(rect(6.993170380896941e-09, 2.948363634856907e-10).transl(6.486773902123546e-08, -4e-08, 0))
hIsland = hIsland.sub(rect(8.860241346959765e-09, -1.3687533685695317e-09).transl(1.3356734612406005e-08, -4e-08, 0))
hIsland = hIsland.sub(rect(8.98027747727745e-09, -8.48343559071729e-10).transl(-7.101021422065881e-08, -4e-08, 0))
hIsland = hIsland.sub(rect(8.34467612386237e-09, -6.047131092130297e-10).transl(-2.916244528279785e-08, -4e-08, 0))
hIsland = hIsland.add(rect(5.034439364811959e-09, 1.0324182120165174e-09).transl(2.1356055042421485e-08, -4e-08, 0))
hIsland = hIsland.sub(rect(5.161259161381002e-09, -6.333823774379767e-11).transl(-7.85917903930384e-08, -4e-08, 0))
hIsland = hIsland.add(rect(5.590440983954461e-09, 2.827938501294597e-09).transl(8.878274701872972e-08, -4e-08, 0))
hIsland = hIsland.add(rect(8.79794041528378e-09, 2.376231304269626e-09).transl(9.770183148175164e-08, -4e-08, 0))
hIsland = hIsland.add(rect(3.805049699063569e-09, 1.2857600762925249e-09).transl(-1.1235506717198306e-07, -2.5521473460948785e-08, 0))
hIsland = hIsland.sub(rect(5.680240491419419e-09, -9.293809973348011e-10).transl(-5.53607082048275e-08, -4e-08, 0))
hIsland = hIsland.sub(rect(4.909900105099687e-09, -1.3479382971386051e-09).transl(4.6422218678764995e-08, -4e-08, 0))
hIsland = hIsland.sub(rect(2.7173347534455357e-09, -2.4771098952474457e-09).transl(3.310450562106746e-08, -4e-08, 0))
hIsland = hIsland.add(rect(6.651692198818485e-09, 1.6306530300135399e-10).transl(1.0875768918362558e-07, -3.557475444759874e-08, 0))
hIsland = hIsland.sub(rect(9.744535779612181e-09, -9.49422538490693e-10).transl(1.0374754099159287e-07, -3.999073215242163e-08, 0))
hIsland = hIsland.add(rect(4.140776874811729e-09, 2.4948236482161447e-09).transl(6.187468665036359e-08, -4e-08, 0))
hIsland = hIsland.add(rect(5.707564761933075e-09, 3.448367559721444e-11).transl(-6.157938388651119e-08, -4e-08, 0))
hIsland = hIsland.add(rect(4.849206239475083e-09, 3.8250923528522015e-09).transl(7.927949063566319e-08, -4e-08, 0))
hIsland = hIsland.add(rect(2.733407550508604e-09, 2.0353149936248392e-09).transl(8.383296357220088e-08, -4e-08, 0))
hIsland = hIsland.sub(rect(6.295252404510753e-09, -2.5617836194590018e-09).transl(6.785249541440757e-08, -4e-08, 0))
hIsland = hIsland.add(rect(6.512559708879811e-09, 3.0727564637235097e-09).transl(-2.602464780599939e-08, -4e-08, 0))
hIsland = hIsland.sub(rect(9.961085991361318e-09, -9.849458587604001e-10).transl(8.086760399053356e-09, -4e-08, 0))
hIsland = hIsland.add(rect(2.6463924923420665e-09, 1.6901949058117765e-10).transl(-5.228968022543515e-08, -4e-08, 0))
hIsland = hIsland.sub(rect(2.9111352215026196e-09, -1.6792286439653603e-09).transl(-1.0940294326005232e-08, -4e-08, 0))
hIsland = hIsland.sub(rect(5.286246302947503e-09, -4.1192013737155224e-10).transl(-2.945770275176607e-08, -4e-08, 0))
hIsland = hIsland.add(rect(9.211370081332037e-09, 1.931750640951122e-09).transl(-1.0363642880095297e-07, -3.999718510810346e-08, 0))
hIsland = hIsland.sub(rect(4.3705650063384826e-09, -7.664495096672085e-10).transl(-7.91859055555759e-08, -4e-08, 0))
hIsland = hIsland.sub(rect(3.06025089102271e-09, -2.8463340922973463e-09).transl(-1.0515894981577994e-07, -3.9581613116343955e-08, 0))
hIsland = hIsland.sub(rect(3.362702657955203e-09, -9.80801130276616e-10).transl(-8.496978889503328e-08, -4e-08, 0))
hIsland = hIsland.sub(rect(2.9936983376962393e-09, -8.322182326366326e-11).transl(6.372481909734749e-08, -4e-08, 0))
hIsland = hIsland.sub(rect(8.517248109118441e-09, -1.5087772049446342e-09).transl(6.084892266973384e-08, -4e-08, 0))
hIsland = hIsland.sub(rect(5.010047056156881e-09, -2.683629270600085e-10).transl(9.828165309594492e-08, -4e-08, 0))
hIsland = hIsland.sub(rect(9.67114251147678e-09, -1.367286496780459e-10).transl(-1.0638015296149784e-07, -3.8725201250179736e-08, 0))
hIsland = hIsland.sub(rect(2.546840096080838e-09, -1.2216759584588995e-09).transl(5.327075856039832e-08, -4e-08, 0))
hIsland = hIsland.add(rect(2.587810765975131e-09, 9.37660485257627e-11).transl(-6.479852027524855e-08, -4e-08, 0))
hIsland = hIsland.sub(rect(8.931611414595261e-09, -4.0824256340821926e-10).transl(1.098406881170556e-07, -3.337058672545735e-08, 0))
hIsland = hIsland.sub(rect(6.553361508550136e-09, -2.368388979537333e-09).transl(-1.252558248519304e-08, -4e-08, 0))
hIsland = hIsland.sub(rect(5.045409251784049e-09, -1.269638431066992e-09).transl(1.3994212127538003e-08, -4e-08, 0))
hIsland = hIsland.sub(rect(8.094040751933158e-09, -1.260105559651584e-09).transl(5.631353759652433e-08, -4e-08, 0))
hIsland = hIsland.add(rect(4.546233792030212e-09, 4.120406468821381e-11).transl(-6.397261707603698e-08, -4e-08, 0))
hIsland = hIsland.sub(rect(3.44772135902394e-09, -9.974062935998168e-11).transl(3.161340084848863e-08, -4e-08, 0))
hIsland = hIsland.add(rect(5.115371505156144e-09, 1.9958726713752553e-09).transl(-9.911937100641868e-08, -4e-08, 0))
hIsland = hIsland.sub(rect(3.582067276529264e-09, -2.482256111426311e-09).transl(2.6972703532772468e-08, -4e-08, 0))
hIsland = hIsland.add(rect(5.7832181990452595e-09, 1.1824480950142067e-09).transl(-5.8353495149902255e-08, -4e-08, 0))
hIsland = hIsland.add(rect(3.4791522729133995e-09, 2.1756984074940514e-09).transl(8.3112387281246e-09, -4e-08, 0))
hIsland = hIsland.add(rect(3.4982020563156208e-09, 1.5023041239693377e-09).transl(-1.9835912312098678e-08, -4e-08, 0))
hIsland = hIsland.add(rect(5.0275541858139466e-09, 8.142623425278847e-11).transl(-9.616734288793879e-08, -4e-08, 0))
hIsland = hIsland.sub(rect(6.021625702711933e-09, -1.5382596292130862e-09).transl(1.0516660562522017e-08, -4e-08, 0))
hIsland = hIsland.sub(rect(4.967654339146551e-09, -9.948938728081466e-10).transl(1.7911034698427818e-08, -4e-08, 0))
hIsland = hIsland.sub(rect(5.961056694179277e-09, -1.3751116624155028e-09).transl(-6.04831022019466e-09, -4e-08, 0))
hIsland = hIsland.add(rect(3.6053984505499257e-09, 1.135141115842204e-09).transl(6.560599447097821e-09, -4e-08, 0))
hIsland = hIsland.add(rect(2.6338873266160663e-09, 1.1134953723762862e-09).transl(4.576090272243908e-08, -4e-08, 0))
hIsland = hIsland.sub(rect(8.255229524926317e-09, -1.892228746025043e-09).transl(5.6701737521888894e-08, -4e-08, 0))
hIsland = hIsland.sub(rect(8.341170019638308e-09, -1.5123396594711827e-09).transl(1.770604217764489e-08, -4e-08, 0))
hIsland = hIsland.sub(rect(6.549016003769484e-09, -4.8222911512728956e-09).transl(1.1047076136499673e-07, -3.1813917557871714e-08, 0))
hIsland = hIsland.add(rect(6.6903897881573115e-09, 1.6191779036118688e-09).transl(-1.0420842891355036e-07, -3.992403046269866e-08, 0))
hIsland = hIsland.add(rect(2.9551033848325823e-09, 6.751821771017563e-10).transl(-9.64856941066219e-08, -4e-08, 0))
hIsland = hIsland.sub(rect(7.290958106377504e-09, -4.119956108268085e-09).transl(-1.0379511071295196e-07, -3.998682727024902e-08, 0))
hIsland = hIsland.sub(rect(2.8818276902110585e-09, -3.871966589679048e-10).transl(7.701159985479969e-08, -4e-08, 0))
hIsland = hIsland.add(rect(5.482735793854315e-09, 2.4357005827860265e-09).transl(1.494279774451415e-10, -4e-08, 0))
hIsland = hIsland.add(rect(4.24750593233365e-09, 3.5862495453073593e-09).transl(-6.99457509705739e-08, -4e-08, 0))
hIsland = hIsland.sub(rect(6.691203251293349e-09, -5.2536703034706325e-09).transl(-7.530475225242795e-08, -4e-08, 0))
hIsland = hIsland.sub(rect(5.33820927087691e-09, -1.826413021665476e-09).transl(-8.916054375020117e-08, -4e-08, 0))
hIsland = hIsland.sub(rect(3.842620755181886e-09, -4.907453933652414e-09).transl(3.099679614621792e-08, -4e-08, 0))
hIsland = hIsland.sub(rect(9.974272068136025e-09, -7.56101075381039e-10).transl(-3.112694157280829e-08, -4e-08, 0))
hIsland = hIsland.add(rect(3.612487261682647e-09, 1.8331722904821308e-09).transl(7.01511151997045e-08, -4e-08, 0))
hIsland = hIsland.sub(rect(6.438224878519591e-09, -1.0408660036120261e-09).transl(3.565390898187958e-08, -4e-08, 0))
hIsland = hIsland.add(rect(3.298416207908339e-09, 1.2848056623167432e-10).transl(1.1372073490142073e-07, -1.8334948070684517e-08, 0))
hIsland = hIsland.add(rect(2.446049944152686e-09, 1.3027167095461554e-09).transl(1.1383392845112492e-07, -1.755054842227142e-08, 0))
hIsland = hIsland.sub(rect(4.115787094570206e-09, -6.216034521757918e-10).transl(2.0880366439214472e-08, -4e-08, 0))
hIsland = hIsland.add(rect(2.6793403211031113e-09, 1.0829294336691152e-09).transl(-1.0381122138184675e-07, -3.9985349491169464e-08, 0))
hIsland = hIsland.sub(rect(7.880992772324916e-09, -5.897407926092202e-10).transl(1.9535337549707178e-08, -4e-08, 0))
hIsland = hIsland.sub(rect(3.3556843586064978e-09, -6.348087551001288e-10).transl(-6.436579775647156e-08, -4e-08, 0))
hIsland = hIsland.add(rect(7.0309984959208165e-09, 3.676347588009701e-09).transl(-8.881365875379309e-08, -4e-08, 0))
hIsland = hIsland.add(rect(6.271591204009449e-09, 9.971650477370291e-10).transl(6.00577072766022e-08, -4e-08, 0))
hIsland = hIsland.sub(rect(3.939977403307729e-09, -2.3071551503684716e-09).transl(-9.40441464389631e-08, -4e-08, 0))
hIsland = hIsland.sub(rect(6.615043013613657e-09, -2.3580701363285664e-09).transl(1.0604077156816138e-07, -3.901152636044207e-08, 0))
hIsland = hIsland.add(rect(9.015107008407046e-09, 1.952131341605884e-09).transl(2.5303570984225393e-08, -4e-08, 0))
hIsland = hIsland.add(rect(7.667165801963022e-09, 6.273894201778033e-10).transl(-1.0436688911487183e-07, -3.9886190191786e-08, 0))
hIsland = hIsland.add(rect(7.273386314517922e-09, 5.22879152648284e-09).transl(7.625883037999014e-08, -4e-08, 0))
hIsland = hIsland.sub(rect(8.937822913513647e-09, -1.6006900846492122e-10).transl(8.549966873578595e-08, -4e-08, 0))
hIsland = hIsland.sub(rect(3.5665161599207185e-09, -1.2496966073912096e-09).transl(-7.505833135980081e-08, -4e-08, 0))
hIsland = hIsland.add(rect(8.557241693894255e-09, 5.958000215073933e-09).transl(-1.1211446985099668e-07, -2.649898592032397e-08, 0))
hIsland = hIsland.sub(rect(3.286669425141856e-09, -1.8008751432487169e-09).transl(-1.0096347848467297e-07, -4e-08, 0))
hIsland = hIsland.add(rect(4.803778786877857e-09, 1.3256403710855025e-09).transl(6.14870381953996e-08, -4e-08, 0))
hIsland = hIsland.sub(rect(9.862063093395027e-09, -6.828687991799407e-10).transl(-7.448340689795409e-08, -4e-08, 0))
hIsland = hIsland.add(rect(3.254837578761097e-09, 3.2160651174683763e-09).transl(9.60591233086764e-08, -4e-08, 0))
hIsland = hIsland.sub(rect(8.45507866936536e-09, -4.168211755040389e-09).transl(1.1104011788406602e-07, -3.020216640798316e-08, 0))
hIsland = hIsland.add(rect(5.8345267434051e-09, 2.491175885220167e-09).transl(1.1064870051955881e-07, -3.133256330008634e-08, 0))
hIsland = hIsland.sub(rect(6.412721097823429e-09, -2.9700255332549603e-09).transl(6.644392891885585e-08, -4e-08, 0))
hIsland = hIsland.sub(rect(2.3806222642359333e-09, -7.602313885797532e-10).transl(9.814483734890407e-08, -4e-08, 0))
hIsland = hIsland.sub(rect(2.4460493956055327e-09, -1.686314398690138e-10).transl(1.0601982325942251e-07, -3.902796100921933e-08, 0))
hIsland = hIsland.add(rect(8.469683337303421e-09, 1.872875476880113e-09).transl(-3.796113251663928e-08, -4e-08, 0))
hIsland = hIsland.add(rect(9.768970725185327e-09, 1.576051412995723e-09).transl(2.387055719094036e-08, -4e-08, 0))
hIsland = hIsland.sub(rect(2.1438462022505114e-09, -1.2686461754324926e-09).transl(2.2218128603051177e-08, -4e-08, 0))
hIsland = hIsland.sub(rect(7.76436300185077e-09, -2.842044036147829e-09).transl(7.108598411337801e-08, -4e-08, 0))
hIsland = hIsland.add(rect(7.626742888259538e-09, 1.6025910326604597e-09).transl(-1.6541624084381822e-08, -4e-08, 0))
hIsland = hIsland.sub(rect(4.823413291599694e-09, -6.297599962659034e-10).transl(2.0233693680331218e-08, -4e-08, 0))
hIsland = hIsland.sub(rect(6.519581942952741e-09, -1.032836073668376e-10).transl(-1.557105434761442e-08, -4e-08, 0))
hIsland = hIsland.sub(rect(5.077941118656393e-09, -1.6453414106876746e-10).transl(2.883723893216902e-08, -4e-08, 0))
hIsland = hIsland.add(rect(3.634947216614455e-09, 3.93184020697422e-09).transl(5.679947679943558e-08, -4e-08, 0))
hIsland = hIsland.sub(rect(4.824718370740345e-09, -3.4428736777196003e-09).transl(-8.72702074341373e-08, -4e-08, 0))
hIsland = hIsland.sub(rect(9.12393259060154e-09, -1.1330522886344584e-09).transl(-7.446408427831834e-08, -4e-08, 0))
hIsland = hIsland.add(rect(6.58966109966816e-09, 1.695178519431104e-09).transl(6.583672714744829e-08, -4e-08, 0))
hIsland = hIsland.add(rect(6.2498891795834834e-09, 1.2220024282173534e-09).transl(1.0382730993349519e-07, -3.998379531229843e-08, 0))
hIsland = hIsland.sub(rect(4.24786620364645e-09, -7.384718368303197e-10).transl(-2.162250813711209e-08, -4e-08, 0))
hIsland = hIsland.sub(rect(6.48878585182393e-09, -1.5336944564795908e-09).transl(-2.0898563317972632e-08, -4e-08, 0))
hIsland = hIsland.sub(rect(3.2330069971621332e-09, -4.754360652411354e-10).transl(-8.715808722145227e-08, -4e-08, 0))
hIsland = hIsland.add(rect(2.5496832358251105e-09, 2.0709279004663137e-09).transl(-7.464715706088552e-08, -4e-08, 0))
hIsland = hIsland.add(rect(8.100428589929942e-09, 9.571758530852635e-10).transl(-7.326567127244983e-10, -4e-08, 0))
hIsland = hIsland.add(rect(3.0083836117899064e-09, 2.1664076252143323e-09).transl(9.050978179106771e-08, -4e-08, 0))
hIsland = hIsland.sub(rect(6.265367382183937e-09, -1.8726679451423465e-10).transl(-2.409017466518864e-08, -4e-08, 0))
hIsland = hIsland.add(rect(4.594758870803655e-09, 2.859885325294406e-09).transl(-7.714903554688659e-08, -4e-08, 0))
hIsland = hIsland.add(rect(6.592056600655059e-09, 2.329372500749788e-09).transl(-1.514520565035425e-08, -4e-08, 0))
hIsland = hIsland.sub(rect(5.8391316948572395e-09, -6.820364985493704e-10).transl(-9.12919631552836e-09, -4e-08, 0))
hIsland = hIsland.add(rect(2.4733329098012567e-09, 2.4071531786993456e-10).transl(-4.1783303511122985e-08, -4e-08, 0))
hIsland = hIsland.sub(rect(8.24181390284003e-09, -1.183937579588358e-09).transl(4.910863610186013e-08, -4e-08, 0))
hIsland = hIsland.add(rect(4.830342035894582e-09, 1.2397238382526983e-09).transl(-6.603038825299156e-08, -4e-08, 0))
hIsland = hIsland.sub(rect(7.301635292498672e-09, -9.39113279086116e-10).transl(-1.5110810626214126e-08, -4e-08, 0))
hIsland = hIsland.add(rect(2.2965177979732375e-09, 9.039904141703602e-10).transl(1.6883565234935008e-08, -4e-08, 0))
hIsland = hIsland.sub(rect(2.8024061428242827e-09, -9.525232481926632e-10).transl(8.072762797931769e-08, -4e-08, 0))
hIsland = hIsland.add(rect(2.7186764308378636e-09, 1.834235877723648e-09).transl(8.260705246228689e-08, -4e-08, 0))
hIsland = hIsland.sub(rect(6.074860228667814e-09, -2.987184476490134e-09).transl(-1.1485007801513528e-08, -4e-08, 0))
hIsland = hIsland.sub(rect(8.488471644490579e-09, -1.6559986488759414e-09).transl(3.594011717685462e-08, -4e-08, 0))
hIsland = hIsland.sub(rect(7.430805738501075e-09, -1.1949908500472412e-09).transl(1.029394535901764e-07, -4e-08, 0))
hIsland = hIsland.sub(rect(5.386601378088681e-09, -1.0630936366660899e-09).transl(-2.192747642652753e-08, -4e-08, 0))
hIsland = hIsland.add(rect(8.773409242114018e-09, 1.0902666038920689e-10).transl(6.162626617405626e-08, -4e-08, 0))
hIsland = hIsland.sub(rect(8.27748580907992e-09, -1.8368287119452775e-09).transl(-4.7533531324878905e-09, -4e-08, 0))
hIsland = hIsland.sub(rect(6.0481907533157214e-09, -1.722740453426866e-09).transl(-6.847019910628205e-08, -4e-08, 0))
hIsland = hIsland.sub(rect(7.012756212756452e-09, -5.780238290263515e-10).transl(1.8300636694460267e-08, -4e-08, 0))
hIsland = hIsland.sub(rect(7.388477108418616e-09, -2.6462136124361712e-09).transl(-2.371560727671746e-09, -4e-08, 0))
hIsland = hIsland.add(rect(5.795744523580656e-09, 6.149240490296593e-10).transl(6.108445567281701e-08, -4e-08, 0))
hIsland = hIsland.sub(rect(5.02331380471331e-09, -5.662986132611151e-09).transl(-2.7070841367523874e-08, -4e-08, 0))
hIsland = hIsland.add(rect(4.093083073590352e-09, 8.195162901409467e-10).transl(2.5137710963023842e-08, -4e-08, 0))
hIsland = hIsland.sub(rect(7.178540942819076e-09, -1.5530155267863585e-09).transl(-3.866286536122782e-08, -4e-08, 0))
hIsland = hIsland.add(rect(2.834334254944245e-09, 2.486373925623225e-09).transl(4.0875415443157444e-08, -4e-08, 0))
hIsland = hIsland.sub(rect(6.6400792642970954e-09, -9.005102102020689e-10).transl(3.517369151943161e-08, -4e-08, 0))
hIsland = hIsland.add(rect(4.313504353693665e-09, 3.005067347374414e-09).transl(-1.1391481011735526e-07, -1.696226621783124e-08, 0))
hIsland = hIsland.sub(rect(7.21215830655846e-09, -1.1268079581943e-09).transl(-9.091066949813492e-08, -4e-08, 0))
hIsland = hIsland.sub(rect(3.3911747102833392e-09, -2.052410599251437e-09).transl(-2.5175233590683267e-08, -4e-08, 0))
hIsland = hIsland.add(rect(7.526463495893256e-09, 2.2634992901523657e-09).transl(-1.0041733394728559e-07, -4e-08, 0))
hIsland = hIsland.add(rect(6.3915278598624284e-09, 1.5213315620192563e-09).transl(7.127058303578841e-08, -4e-08, 0))
hIsland = hIsland.sub(rect(6.1443737893909325e-09, -1.1734663335203718e-09).transl(4.4382767755713514e-08, -4e-08, 0))
hIsland = hIsland.add(rect(9.548673606814379e-09, 5.392852089029609e-10).transl(-5.47802740969004e-08, -4e-08, 0))
hIsland = hIsland.sub(rect(4.306298950009362e-09, -2.5299891845191013e-10).transl(2.1950417786162577e-08, -4e-08, 0))
hIsland = hIsland.add(rect(7.151404231025377e-09, 3.1043468941726956e-09).transl(-8.995227021745027e-08, -4e-08, 0))
hIsland = hIsland.sub(rect(8.765751534445898e-09, -1.8091889756910001e-10).transl(-7.222816883382128e-10, -4e-08, 0))
hIsland = hIsland.add(rect(6.47273068379495e-09, 9.532898498029002e-11).transl(1.0101165831148171e-07, -4e-08, 0))
hIsland = hIsland.add(rect(8.600438578646405e-09, 5.187335357548972e-10).transl(-1.298823956094576e-08, -4e-08, 0))
hIsland = hIsland.add(rect(2.8814989570844985e-09, 1.7843402860456938e-09).transl(-5.951632289357025e-08, -4e-08, 0))
hIsland = hIsland.sub(rect(6.4400603205654325e-09, -2.546878544202947e-09).transl(-9.230844579113999e-08, -4e-08, 0))
hIsland = hIsland.add(rect(3.67381814857302e-09, 2.8517362047379027e-09).transl(9.273426380808917e-08, -4e-08, 0))
hIsland = hIsland.sub(rect(6.073696288613648e-09, -6.416360974908298e-10).transl(-9.575678470070214e-08, -4e-08, 0))
hIsland = hIsland.sub(rect(2.7138234337150797e-09, -1.2773992560831916e-09).transl(-1.71320658143952e-08, -4e-08, 0))
hIsland = hIsland.add(rect(5.433974775228002e-09, 2.559673674024617e-09).transl(2.0507547381558364e-08, -4e-08, 0))
hIsland = hIsland.add(rect(5.6349928396007464e-09, 1.4473427279475813e-09).transl(-8.879055838259093e-08, 4e-08, 0))
hIsland = hIsland.sub(rect(8.374264710724977e-09, -2.59791015808078e-09).transl(-5.1831303511412206e-08, 4e-08, 0))
hIsland = hIsland.add(rect(4.619018313363047e-09, 1.1709711889198861e-12).transl(-3.821917238482284e-08, 4e-08, 0))
hIsland = hIsland.sub(rect(5.100483930670585e-09, -3.8331093997330585e-09).transl(-1.0875369656237541e-07, 3.5581889988999066e-08, 0))
hIsland = hIsland.add(rect(6.110128646145671e-09, 1.1638955401515073e-09).transl(-1.872061234770228e-08, 4e-08, 0))
hIsland = hIsland.sub(rect(2.6596899930716013e-09, -3.663064313215645e-09).transl(-1.4469750940418677e-08, 4e-08, 0))
hIsland = hIsland.sub(rect(8.747186921708032e-09, -3.2138593945023526e-10).transl(-8.804327512621176e-09, 4e-08, 0))
hIsland = hIsland.sub(rect(4.254697926070755e-09, -1.4442085917492232e-09).transl(4.0792688746473904e-08, 4e-08, 0))
hIsland = hIsland.sub(rect(5.038278292837685e-09, -1.375678216416998e-09).transl(-3.42823817470774e-08, 4e-08, 0))
hIsland = hIsland.add(rect(3.827626367597863e-09, 8.221712863961573e-10).transl(-3.922962940811958e-09, 4e-08, 0))
hIsland = hIsland.sub(rect(7.949191233319512e-09, -5.891350494389709e-10).transl(-8.774001357032602e-08, 4e-08, 0))
hIsland = hIsland.sub(rect(7.428622171005453e-09, -1.8502607130965767e-09).transl(6.39891492811122e-08, 4e-08, 0))
hIsland = hIsland.sub(rect(4.599624406470416e-09, -2.482793058829501e-09).transl(-4.54046125258327e-09, 4e-08, 0))
hIsland = hIsland.sub(rect(7.873374388892212e-09, -3.2215631041824993e-09).transl(8.902921790921492e-08, 4e-08, 0))
hIsland = hIsland.sub(rect(9.488668076239682e-09, -3.964974290288354e-09).transl(1.0880351731920134e-07, 3.549235935474393e-08, 0))
hIsland = hIsland.sub(rect(3.472151285955895e-09, -3.078961738900968e-09).transl(-5.279076881587512e-09, 4e-08, 0))
hIsland = hIsland.add(rect(4.363421985552013e-09, 1.6846511957034528e-09).transl(7.011077224554525e-08, 4e-08, 0))
hIsland = hIsland.add(rect(9.352888321787463e-09, 1.1107107090986868e-10).transl(-4.8660483177358606e-08, 4e-08, 0))
hIsland = hIsland.sub(rect(4.782143122669413e-09, -3.8823163987394044e-10).transl(3.23261595370503e-08, 4e-08, 0))
hIsland = hIsland.add(rect(3.5035192346708164e-09, 3.409782286436779e-09).transl(-1.3647994444816727e-08, 4e-08, 0))
hIsland = hIsland.add(rect(5.877847117226635e-09, 3.809116151169061e-09).transl(-6.047260008946724e-08, 4e-08, 0))
hIsland = hIsland.add(rect(9.491030039374945e-09, 2.671730903082703e-09).transl(-1.6651836782927584e-08, 4e-08, 0))
hIsland = hIsland.sub(rect(6.734155980377589e-09, -5.635121840275487e-10).transl(-7.93211684851173e-08, 4e-08, 0))
hIsland = hIsland.sub(rect(8.967748905244268e-09, -1.276140500917917e-09).transl(-7.535505292733956e-08, 4e-08, 0))
hIsland = hIsland.add(rect(6.0106258295245475e-09, 6.679009769061245e-10).transl(-5.897214098882456e-08, 4e-08, 0))
hIsland = hIsland.add(rect(3.8974265587313335e-09, 1.8131659391959754e-09).transl(5.4969676061879924e-08, 4e-08, 0))
hIsland = hIsland.add(rect(6.707466323354781e-09, 4.62147166434956e-10).transl(3.8832444924599734e-08, 4e-08, 0))
hIsland = hIsland.sub(rect(5.15816441365426e-09, -1.6027051473697851e-09).transl(4.471966793413218e-09, 4e-08, 0))
hIsland = hIsland.add(rect(9.50377406949074e-09, 2.494558532342341e-09).transl(-2.5001237625643548e-08, 4e-08, 0))
hIsland = hIsland.add(rect(4.260087153216676e-09, 6.029890305543982e-10).transl(8.48919338366522e-08, 4e-08, 0))
hIsland = hIsland.sub(rect(2.5678503608799286e-09, -4.179325449991889e-10).transl(4.768618937614853e-08, 4e-08, 0))
hIsland = hIsland.add(rect(4.480174429563024e-09, 1.9942514007366316e-10).transl(7.574637601604107e-08, 4e-08, 0))
hIsland = hIsland.add(rect(2.723932274656556e-09, 5.6633320777414e-10).transl(-1.0537558432480187e-07, 3.946441947595142e-08, 0))
hIsland = hIsland.sub(rect(5.130989219252736e-09, -1.1597850852660027e-10).transl(-1.0713314951651277e-07, 3.795135273783849e-08, 0))
hIsland = hIsland.add(rect(8.05319042323712e-09, 8.241157705010737e-10).transl(5.022487397082359e-08, 4e-08, 0))
hIsland = hIsland.add(rect(2.716360978729297e-09, 2.88456437867179e-09).transl(9.16671379216432e-08, 4e-08, 0))
hIsland = hIsland.add(rect(3.1351950619405794e-09, 1.1546783704650244e-09).transl(-4.23974905013541e-08, 4e-08, 0))
hIsland = hIsland.sub(rect(7.44353023612643e-09, -3.544087739084685e-09).transl(-2.985825986659851e-08, 4e-08, 0))
hIsland = hIsland.add(rect(9.100357899139284e-09, 1.719060138714279e-09).transl(9.551737017638737e-08, 4e-08, 0))
hIsland = hIsland.add(rect(9.65602652425552e-09, 4.887693031191889e-10).transl(-7.880812244568652e-08, 4e-08, 0))
hIsland = hIsland.sub(rect(2.789924125663821e-09, -7.778254503372973e-10).transl(6.698043008682427e-09, 4e-08, 0))
hIsland = hIsland.sub(rect(6.6800310487999405e-09, -2.189608270768153e-09).transl(-1.0716864772218086e-07, 3.7910015657402415e-08, 0))
hIsland = hIsland.sub(rect(5.34507390320033e-09, -1.197959401063907e-09).transl(3.6044640048706877e-08, 4e-08, 0))
hIsland = hIsland.sub(rect(8.182190826800266e-09, -1.7295223123049228e-09).transl(8.461418481652335e-08, 4e-08, 0))
hIsland = hIsland.add(rect(3.0523219917460464e-09, 3.175076298848831e-09).transl(-3.550226246487149e-08, 4e-08, 0))
hIsland = hIsland.sub(rect(5.742492470791903e-09, -1.2847161145618778e-09).transl(-1.0209312748010858e-07, 4e-08, 0))
hIsland = hIsland.sub(rect(3.5646175399424368e-09, -9.492716129727041e-11).transl(8.883502924247672e-08, 4e-08, 0))
hIsland = hIsland.add(rect(4.668724164440773e-09, 2.011481714955002e-09).transl(-8.989200968095166e-08, 4e-08, 0))
hIsland = hIsland.sub(rect(8.69468479324095e-09, -2.18274850241919e-10).transl(1.0028390890992137e-07, 4e-08, 0))
hIsland = hIsland.add(rect(5.383700117568959e-09, 7.65781251058547e-10).transl(7.589212687118854e-08, 4e-08, 0))
hIsland = hIsland.sub(rect(2.3460258602055566e-09, -5.801565929155042e-10).transl(3.460495926844901e-08, 4e-08, 0))
hIsland = hIsland.add(rect(9.90610661210446e-09, 2.3116140709357474e-09).transl(-4.876117850547614e-08, 4e-08, 0))
hIsland = hIsland.add(rect(8.945841561600705e-09, 1.705344089360809e-10).transl(1.0433716851480507e-07, 3.989387037874266e-08, 0))
hIsland = hIsland.sub(rect(3.625543446390693e-09, -1.8677833900248753e-09).transl(2.3093172392034505e-09, 4e-08, 0))
hIsland = hIsland.sub(rect(3.3430127622580756e-09, -2.623679795410827e-09).transl(9.571510118069384e-08, 4e-08, 0))
hIsland = hIsland.add(rect(8.104368142123889e-09, 2.782401278500354e-10).transl(5.2331104551071033e-08, 4e-08, 0))
hIsland = hIsland.add(rect(9.781478627229967e-09, 1.2643506411479321e-11).transl(1.0089195207832065e-07, 4e-08, 0))
hIsland = hIsland.add(rect(2.7258114674267766e-09, 1.0962807800219919e-09).transl(1.1695289184250778e-08, 4e-08, 0))
hIsland = hIsland.add(rect(8.70536630423347e-09, 1.1235607946338619e-09).transl(7.320607794163736e-08, 4e-08, 0))
hIsland = hIsland.add(rect(7.406673867533388e-09, 3.1913079802324856e-09).transl(-1.6661128249088283e-08, 4e-08, 0))
hIsland = hIsland.sub(rect(6.195711456979979e-09, -1.0369028262977067e-09).transl(4.128225905530691e-08, 4e-08, 0))
hIsland = hIsland.add(rect(2.8783549251914923e-09, 8.568655232334679e-10).transl(-1.0698207061363215e-07, 3.812230787288843e-08, 0))
hIsland = hIsland.add(rect(6.240190889221056e-09, 5.068870186619887e-09).transl(-2.7804497738265822e-08, 4e-08, 0))
hIsland = hIsland.add(rect(3.1430785383643942e-09, 3.848001433274658e-09).transl(6.534994564235461e-08, 4e-08, 0))
hIsland = hIsland.add(rect(4.8692848133051996e-09, 1.0858895273251062e-09).transl(-8.00736624835651e-09, 4e-08, 0))
hIsland = hIsland.add(rect(6.554145793088779e-09, 1.8949791608531603e-09).transl(8.550934814445638e-09, 4e-08, 0))
hIsland = hIsland.add(rect(3.859399955038795e-09, 3.2320121012412966e-10).transl(-7.634061570652458e-08, 4e-08, 0))
hIsland = hIsland.sub(rect(3.755378016794459e-09, -3.6515019111167857e-09).transl(-6.950006638374389e-09, 4e-08, 0))
hIsland = hIsland.sub(rect(3.7081279982412518e-09, -4.26284441753891e-09).transl(-1.2552685879808347e-08, 4e-08, 0))
hIsland = hIsland.add(rect(5.149672816257895e-09, 8.8728924938435e-10).transl(-9.820680193265834e-08, 4e-08, 0))
hIsland = hIsland.sub(rect(9.183327207680475e-09, -6.980900339580827e-10).transl(-2.3251099016265576e-08, 4e-08, 0))
hIsland = hIsland.add(rect(8.675167145434234e-09, 2.79897031915288e-10).transl(-3.4806901386239996e-09, 4e-08, 0))
hIsland = hIsland.sub(rect(8.633616470231848e-09, -4.153727938583015e-10).transl(8.307063020464435e-08, 4e-08, 0))
hIsland = hIsland.add(rect(8.676365289207844e-09, 7.406024871430181e-10).transl(-7.433852013817566e-08, 4e-08, 0))
hIsland = hIsland.sub(rect(9.589529334055872e-09, -8.865114017092234e-10).transl(3.9587319426064205e-09, 4e-08, 0))
hIsland = hIsland.sub(rect(8.923592380315143e-09, -6.625875069306596e-10).transl(-5.187587922532571e-09, 4e-08, 0))
hIsland = hIsland.add(rect(2.860825404437331e-09, 9.683413112074817e-10).transl(5.281250229697542e-08, 4e-08, 0))
hIsland = hIsland.sub(rect(2.257330881453455e-09, -1.3131024098344534e-09).transl(7.990071656718038e-08, 4e-08, 0))
hIsland = hIsland.sub(rect(9.863054733736334e-09, -3.755452661859072e-09).transl(2.0150259489692767e-08, 4e-08, 0))
hIsland = hIsland.sub(rect(4.99786247492333e-09, -1.4473239929050334e-09).transl(4.536962733384992e-08, 4e-08, 0))
hIsland = hIsland.sub(rect(3.5492858613749024e-09, -2.2044686149804588e-09).transl(1.2687532339466755e-08, 4e-08, 0))
hIsland = hIsland.sub(rect(6.894527504104428e-09, -1.347809547371813e-09).transl(-4.6102107854180015e-08, 4e-08, 0))
hIsland = hIsland.sub(rect(9.944702567095267e-09, -1.8007170486162828e-09).transl(-1.005718835950034e-07, 4e-08, 0))
hIsland = hIsland.add(rect(7.093689792386471e-09, 7.639081427371524e-10).transl(7.986301703208589e-09, 4e-08, 0))
hIsland = hIsland.sub(rect(6.661613863769407e-09, -4.2086960950570404e-10).transl(-2.5680939226178795e-08, 4e-08, 0))
hIsland = hIsland.add(rect(7.009290453160299e-09, 2.1275781180348968e-10).transl(7.463695206497216e-08, 4e-08, 0))
hIsland = hIsland.add(rect(8.044139321970121e-09, 1.029670593086469e-10).transl(2.0770793833961493e-08, 4e-08, 0))
hIsland = hIsland.add(rect(9.688099903873717e-09, 4.089852056038021e-09).transl(1.064745736704666e-08, 4e-08, 0))
hIsland = hIsland.sub(rect(9.721649705097463e-09, -1.100629441764055e-09).transl(-1.0281878292850459e-07, 4e-08, 0))
hIsland = hIsland.sub(rect(6.7008599433318456e-09, -5.438303401140032e-10).transl(-8.618422722422377e-08, 4e-08, 0))
hIsland = hIsland.add(rect(2.1302256096311842e-09, 1.5268297750092058e-09).transl(-9.024977399903512e-08, 4e-08, 0))
hIsland = hIsland.add(rect(8.481595729744048e-09, 1.882448918802907e-09).transl(4.129072759735316e-09, 4e-08, 0))
hIsland = hIsland.sub(rect(6.817037859893808e-09, -2.483681731495022e-09).transl(2.7118780988153204e-08, 4e-08, 0))
hIsland = hIsland.sub(rect(9.201025592865872e-09, -1.0949854181514838e-09).transl(-1.9742684082326056e-09, 4e-08, 0))
hIsland = hIsland.add(rect(2.5087199671987517e-09, 2.117074136973762e-09).transl(5.1921840221975554e-08, 4e-08, 0))
hIsland = hIsland.sub(rect(5.092069917113119e-09, -1.0144183535457407e-09).transl(-2.300053839349175e-08, 4e-08, 0))
hIsland = hIsland.add(rect(7.616873551405443e-09, 3.11133520868409e-11).transl(9.835672618544044e-08, 4e-08, 0))
hIsland = hIsland.add(rect(6.022379184959138e-09, 2.162161799409681e-09).transl(8.380064214271734e-08, 4e-08, 0))
hIsland = hIsland.add(rect(4.865036332696733e-09, 3.665251061753566e-10).transl(6.432779344710553e-08, 4e-08, 0))
hIsland = hIsland.add(rect(7.744580042944886e-09, 7.297595446102277e-10).transl(-1.118325039309438e-08, 4e-08, 0))
hIsland = hIsland.add(rect(5.912012115850242e-09, 2.858710771250872e-09).transl(8.197465642845935e-08, 4e-08, 0))
hIsland = hIsland.add(rect(3.411443625885242e-09, 5.219021343130386e-09).transl(-1.8470146205192652e-09, 4e-08, 0))
hIsland = hIsland.sub(rect(5.026328675151535e-09, -2.2915327569542024e-09).transl(-5.3367368634551545e-08, 4e-08, 0))
hIsland = hIsland.add(rect(4.086101601346029e-09, 2.324390324568824e-09).transl(-8.573289548553004e-08, 4e-08, 0))
hIsland = hIsland.sub(rect(6.924826610217925e-09, -1.2441353829966453e-09).transl(-9.759121823951142e-08, 4e-08, 0))
hIsland = hIsland.add(rect(7.63378899568842e-09, 3.7233713338702115e-09).transl(-4.770497632912939e-08, 4e-08, 0))
hIsland = hIsland.add(rect(2.3934906767076747e-09, 1.7656491253261393e-09).transl(-6.140919232010577e-08, 4e-08, 0))
hIsland = hIsland.sub(rect(7.135020165429576e-09, -3.0637744785940024e-10).transl(6.906698304727718e-08, 4e-08, 0))
hIsland = hIsland.add(rect(9.698002341399514e-09, 6.244853394489573e-10).transl(8.079026652698794e-08, 4e-08, 0))
hIsland = hIsland.sub(rect(5.502689639165028e-09, -2.25316575529031e-09).transl(-5.36095793106479e-08, 4e-08, 0))
hIsland = hIsland.add(rect(4.256716904589696e-09, 3.83528880176584e-09).transl(2.9120386714801187e-08, 4e-08, 0))
hIsland = hIsland.sub(rect(5.5951925581568975e-09, -8.487224652621833e-11).transl(-8.74780357537331e-08, 4e-08, 0))
hIsland = hIsland.add(rect(9.56591956622868e-09, 3.9057756043510875e-09).transl(-1.4514203215682437e-08, 4e-08, 0))
hIsland = hIsland.sub(rect(6.060972434814614e-09, -9.951744299748106e-10).transl(-9.445313155897935e-08, 4e-08, 0))
hIsland = hIsland.add(rect(6.224070889108083e-09, 3.2288013472993193e-09).transl(-8.689900522072186e-09, 4e-08, 0))
hIsland = hIsland.sub(rect(7.504488392254402e-09, -1.4190506319554126e-10).transl(-6.588593822336762e-08, 4e-08, 0))
hIsland = hIsland.sub(rect(4.2337698611782e-09, -9.501142185560479e-11).transl(-5.251085013251654e-08, 4e-08, 0))
hIsland = hIsland.sub(rect(8.323397344047499e-09, -4.22552285959397e-09).transl(-8.25282820002271e-08, 4e-08, 0))
hIsland = hIsland.sub(rect(7.881750837090877e-09, -4.849461272420944e-09).transl(3.115415691077734e-08, 4e-08, 0))
hIsland = hIsland.add(rect(8.855827625231644e-09, 2.36437108273809e-10).transl(4.221163116424021e-09, 4e-08, 0))
hIsland = hIsland.add(rect(3.977338672668029e-09, 1.7078494190681396e-09).transl(-9.071695846536992e-08, 4e-08, 0))
hIsland = hIsland.sub(rect(2.3332927105381424e-09, -2.673855502606636e-10).transl(-8.767002990939725e-09, 4e-08, 0))
hIsland = hIsland.sub(rect(2.3847349663732348e-09, -1.2911154504463305e-09).transl(-1.0404647523060818e-07, 3.9954812256162406e-08, 0))
hIsland = hIsland.sub(rect(6.933380925072175e-09, -2.9055245633542337e-09).transl(-6.555827169125341e-08, 4e-08, 0))
hIsland = hIsland.add(rect(3.962477503720801e-09, 7.606236624300014e-10).transl(-4.71279576694014e-08, 4e-08, 0))
hIsland = hIsland.sub(rect(2.349184978492887e-09, -1.3938453101145415e-10).transl(2.3605099145150312e-08, 4e-08, 0))
hIsland = hIsland.sub(rect(6.6437723052054435e-09, -1.7302291865921698e-09).transl(-5.040432703201201e-08, 4e-08, 0))
hIsland = hIsland.sub(rect(6.220570655477769e-09, -1.2152055291163262e-09).transl(3.1392499268643253e-08, 4e-08, 0))
hIsland = hIsland.sub(rect(2.5728388608737644e-09, -3.782986332585195e-09).transl(-3.101543541740265e-08, 4e-08, 0))
hIsland = hIsland.add(rect(6.912253218291417e-09, 1.4999482609558993e-09).transl(-5.7173303801010245e-08, 4e-08, 0))
hIsland = hIsland.add(rect(7.73923495475946e-09, 3.0298719329521774e-10).transl(-3.546273192644159e-08, 4e-08, 0))
hIsland = hIsland.sub(rect(5.206779331423739e-09, -3.3972058284842183e-09).transl(-8.742235740729592e-08, 4e-08, 0))
hIsland = hIsland.sub(rect(4.271123450882973e-09, -1.987419805546748e-09).transl(6.295287101492382e-08, 4e-08, 0))
hIsland = hIsland.sub(rect(6.573602740202716e-09, -1.3584360702588478e-09).transl(4.423371752838339e-09, 4e-08, 0))
hIsland = hIsland.sub(rect(8.367492536500891e-09, -8.478758328478185e-10).transl(1.0496101607116153e-07, 3.9675878809067056e-08, 0))
hIsland = hIsland.add(rect(6.577418474329127e-09, 3.257221394059575e-10).transl(-1.9532188687806423e-08, 4e-08, 0))
hIsland = hIsland.sub(rect(4.100442919787059e-09, -9.540158043174412e-10).transl(7.441941998835305e-08, 4e-08, 0))
hIsland = hIsland.sub(rect(8.019409806233379e-09, -3.777838487253283e-09).transl(1.005169591885479e-07, 4e-08, 0))
hIsland = hIsland.sub(rect(4.001547639530844e-09, -8.751359007763544e-10).transl(-1.1221230415958177e-07, 2.6109151423382425e-08, 0))
hIsland = hIsland.add(rect(6.747568873355966e-09, 3.5568108068459645e-10).transl(4.367383321405248e-08, 4e-08, 0))
hIsland = hIsland.sub(rect(7.518765624037171e-09, -1.1949699824201532e-09).transl(-9.178605071252726e-08, 4e-08, 0))
hIsland = hIsland.sub(rect(2.092463883459245e-09, -3.2190099101552257e-10).transl(-1.2187923792647716e-08, 4e-08, 0))
hIsland = hIsland.add(rect(4.255616786929222e-09, 9.654619405840375e-10).transl(-3.2037680963604986e-08, 4e-08, 0))
hIsland = hIsland.add(rect(9.497858736169008e-09, 2.3031495870817604e-09).transl(1.2721359663681314e-08, 4e-08, 0))
hIsland = hIsland.sub(rect(5.079544075773143e-09, -2.452876922040151e-09).transl(7.95462471105444e-08, 4e-08, 0))
hIsland = hIsland.add(rect(5.860141299455307e-09, 3.6886216550209455e-09).transl(-2.6197365295502896e-08, 4e-08, 0))
hIsland = hIsland.sub(rect(3.2183805333618203e-09, -2.9275962261491405e-09).transl(6.990871981459048e-08, 4e-08, 0))
hIsland = hIsland.sub(rect(7.440547126744139e-09, -1.6622982624168022e-09).transl(7.749629819006976e-08, 4e-08, 0))
hIsland = hIsland.sub(rect(9.26906641616034e-09, -1.6789385789426234e-09).transl(1.548988366712957e-08, 4e-08, 0))
hIsland = hIsland.add(rect(8.743834515457252e-09, 1.3259751190826465e-09).transl(-5.617862293846504e-08, 4e-08, 0))
hIsland = hIsland.add(rect(9.08007919016704e-09, 3.717341761674698e-09).transl(9.772335477798006e-08, 4e-08, 0))
hIsland = hIsland.add(rect(3.172717260734614e-09, 8.368907622894964e-10).transl(-9.031893883485746e-08, 4e-08, 0))
hIsland = hIsland.add(rect(6.660594674963508e-09, 1.7580049335125008e-09).transl(-1.0928466338264953e-07, 3.457112569455891e-08, 0))
hIsland = hIsland.sub(rect(2.7031718254889076e-09, -7.805325524096116e-10).transl(-1.1210915294689575e-07, 2.6519882594911057e-08, 0))
hIsland = hIsland.sub(rect(4.461102614112334e-09, -1.7828123096098606e-09).transl(7.826099181601027e-09, 4e-08, 0))
hIsland = hIsland.add(rect(8.256056642205047e-09, 1.5858629371611995e-09).transl(7.808652701188539e-08, 4e-08, 0))
hIsland = hIsland.add(rect(4.822407579740208e-09, 1.2339054381056496e-09).transl(5.680725764577725e-08, 4e-08, 0))
hIsland = hIsland.add(rect(5.7852069268059325e-09, 2.0963550877509142e-10).transl(-5.1729343781126716e-08, 4e-08, 0))
hIsland = hIsland.sub(rect(8.98070345035728e-09, -2.0335898298049676e-10).transl(-6.474638357610732e-08, 4e-08, 0))
hIsland = hIsland.sub(rect(9.641195859901433e-09, -1.3546864956671215e-10).transl(-8.487891105475043e-08, 4e-08, 0))
hIsland = hIsland.add(rect(7.3328371545287125e-09, 9.084797214917009e-11).transl(1.0529398192348114e-07, 3.9510292136026445e-08, 0))
hIsland = hIsland.sub(rect(3.1944567674161794e-09, -2.4278134496255924e-09).transl(-9.169864442555504e-08, 4e-08, 0))
hIsland = hIsland.add(rect(3.3642853444340724e-09, 6.583411640749019e-10).transl(3.218214484054921e-08, 4e-08, 0))
hIsland = hIsland.add(rect(5.0528351305232915e-09, 2.015607269337525e-09).transl(1.050967577385249e-07, 3.961254537289611e-08, 0))
hIsland = hIsland.sub(rect(6.0482752487706415e-09, -2.4159457679513016e-09).transl(6.275473244030164e-08, 4e-08, 0))
hIsland = hIsland.sub(rect(9.99894283857411e-09, -1.3359705955498989e-09).transl(-1.0771035067733923e-07, 3.722274600631293e-08, 0))
hIsland = hIsland.add(rect(6.306633583784159e-09, 2.2577712888174455e-09).transl(1.1878428050080571e-08, 4e-08, 0))
hIsland = hIsland.sub(rect(2.3294415704145506e-09, -8.90620349192112e-10).transl(-8.200760557050995e-08, 4e-08, 0))
hIsland = hIsland.add(rect(7.741567167548054e-09, 6.71107973767684e-11).transl(5.300130363129342e-08, 4e-08, 0))
hIsland = hIsland.add(rect(4.680599749355318e-09, 4.324099439686123e-10).transl(-5.126677580184028e-08, 4e-08, 0))
hIsland = hIsland.sub(rect(8.014821751259552e-09, -3.132536168098767e-09).transl(8.458707779170235e-08, 4e-08, 0))
hIsland = hIsland.add(rect(4.386779027548449e-09, 6.612795819588349e-10).transl(1.1942684307679724e-09, 4e-08, 0))
hIsland = hIsland.add(rect(8.356155908218262e-09, 2.7156086246632774e-09).transl(-8.528526065790706e-08, 4e-08, 0))
hIsland = hIsland.add(rect(2.770913271239512e-09, 3.6398480542385258e-09).transl(1.065302037280586e-07, 3.858641979652055e-08, 0))
hIsland = hIsland.sub(rect(7.724455747583742e-09, -9.072156798878054e-10).transl(-4.2789054635672536e-08, 4e-08, 0))
hIsland = hIsland.add(rect(2.3336847676938028e-09, 7.915581665258391e-10).transl(-1.116994475123995e-07, 2.8046746932694552e-08, 0))
hIsland = hIsland.add(rect(4.131603623133583e-09, 1.5455227740512287e-09).transl(8.999040452034495e-08, 4e-08, 0))
hIsland = hIsland.add(rect(3.8756195296511085e-09, 2.1997201524827105e-10).transl(-4.807039295569397e-08, 4e-08, 0))
hIsland = hIsland.add(rect(6.380761311646006e-09, 1.1914058314111384e-09).transl(1.4899914719516041e-08, 4e-08, 0))
hIsland = hIsland.sub(rect(4.583425016919295e-09, -5.748115440193589e-10).transl(3.0376482545768906e-08, 4e-08, 0))
hIsland = hIsland.sub(rect(5.928231969408559e-09, -2.0386641552318828e-09).transl(-7.045182739193827e-09, 4e-08, 0))
hIsland = hIsland.add(rect(9.673995843718963e-09, 1.5640354889950344e-09).transl(-7.852392496929796e-08, 4e-08, 0))
hIsland = hIsland.sub(rect(6.234163409006603e-09, -6.320248420283188e-10).transl(1.1091627916190018e-07, 3.057088640957447e-08, 0))
hIsland = hIsland.add(rect(8.768001082451459e-09, 1.12305197628538e-09).transl(6.904079326055502e-08, 4e-08, 0))
hIsland = hIsland.add(rect(9.268748042274727e-09, 2.894380292578332e-10).transl(-4.56043099505497e-08, 4e-08, 0))
hIsland = hIsland.add(rect(9.143531052500722e-09, 1.721238759560202e-09).transl(2.8799425770785713e-08, 4e-08, 0))
hIsland = hIsland.add(rect(3.982146039634863e-09, 1.2707116069374146e-09).transl(3.200836183663982e-08, 4e-08, 0))
hIsland = hIsland.sub(rect(3.8523435418964456e-09, -1.2305296359762663e-09).transl(4.786945483303472e-08, 4e-08, 0))
hIsland = hIsland.sub(rect(4.946849857245835e-09, -2.9955294058180647e-09).transl(6.02109976748803e-08, 4e-08, 0))
hIsland = hIsland.add(rect(4.593590041607594e-09, 1.0451381587854714e-09).transl(-1.8832795116684312e-08, 4e-08, 0))
hIsland = hIsland.add(rect(6.0783784585337475e-09, 5.682468693098477e-10).transl(2.5181999899747715e-08, 4e-08, 0))
hIsland = hIsland.sub(rect(7.161297899010828e-09, -3.6526664736980103e-09).transl(1.1038544195774079e-07, 3.2037914976270076e-08, 0))
hIsland = hIsland.sub(rect(3.869865344298073e-09, -1.4595704558326258e-09).transl(-2.823775853429069e-09, 4e-08, 0))
hIsland = hIsland.sub(rect(7.57738318270692e-09, -2.1543275116988894e-09).transl(-1.1394795309977229e-07, 1.6713858198468714e-08, 0))
hIsland = hIsland.add(rect(8.810306515879735e-09, 2.7210978907770416e-10).transl(-2.8839353757745068e-08, 4e-08, 0))
hIsland = hIsland.add(rect(4.673948719486697e-09, 1.0257791449538807e-09).transl(-9.980922558756205e-08, 4e-08, 0))
hIsland = hIsland.add(rect(8.459191378476662e-09, 2.0693933100608785e-09).transl(-2.6403403603422216e-08, 4e-08, 0))
hIsland = hIsland.add(rect(5.50391040396068e-09, 7.746171026308906e-10).transl(-5.9395330178562304e-08, 4e-08, 0))
hIsland = hIsland.sub(rect(7.034098807675175e-09, -4.111242724894107e-09).transl(-7.904049600403015e-08, 4e-08, 0))
hIsland = hIsland.add(rect(5.6989725673711285e-09, 2.3801755033629302e-09).transl(-6.984344304904451e-08, 4e-08, 0))
vIsland = hIsland.rotz(pi / 2)
hIslands = hIslands.add(hIsland.transl(-a/2, a, 0))
hIsland = rect(islandLength-2*ellipseConstant, islandWidth)
hIsland = hIsland.add(ellipse(ellipseConstant*2, islandWidth).transl(islandLength/2-ellipseConstant, 0, 0))
hIsland = hIsland.add(ellipse(ellipseConstant*2, islandWidth).transl(-islandLength/2+ellipseConstant, 0, 0))
hIsland = hIsland.add(rect(9.547254868352233e-09, 1.4609361729588757e-09).transl(1.0474735977082194e-07, -3.9764006081952634e-08, 0))
hIsland = hIsland.add(rect(6.8607009231049826e-09, 8.772013115895504e-10).transl(8.402268682253867e-08, -4e-08, 0))
hIsland = hIsland.add(rect(5.8001974927296556e-09, 9.843686592615546e-10).transl(-2.688108108236026e-09, -4e-08, 0))
hIsland = hIsland.add(rect(3.182498530846351e-09, 1.8215173945799641e-09).transl(-7.043658824399465e-08, -4e-08, 0))
hIsland = hIsland.add(rect(8.334531966498826e-09, 3.311995571360311e-10).transl(3.0590521487962044e-09, -4e-08, 0))
hIsland = hIsland.sub(rect(4.123616776190256e-09, -1.9182290236114475e-09).transl(-2.7115647104177673e-08, -4e-08, 0))
hIsland = hIsland.sub(rect(8.60274323830659e-09, -2.886144607477235e-09).transl(-6.417248897108031e-08, -4e-08, 0))
hIsland = hIsland.add(rect(3.695982342899238e-09, 3.2311490828697325e-10).transl(9.38955361390174e-09, -4e-08, 0))
hIsland = hIsland.add(rect(6.794687860731335e-09, 1.1339944055439918e-09).transl(-9.254467272163016e-08, -4e-08, 0))
hIsland = hIsland.add(rect(6.694879198266605e-09, 3.1933876998710843e-09).transl(-1.0416421083175819e-07, -3.993322577293043e-08, 0))
hIsland = hIsland.add(rect(5.330080053668719e-09, 1.0632580370539996e-09).transl(-1.5394572040242346e-08, -4e-08, 0))
hIsland = hIsland.add(rect(8.786607464902603e-09, 2.2379164307843112e-09).transl(9.91051753918361e-08, -4e-08, 0))
hIsland = hIsland.add(rect(4.322612456578538e-09, 4.106612635322832e-09).transl(8.147746668086338e-08, -4e-08, 0))
hIsland = hIsland.add(rect(4.818022241038237e-09, 3.621398763833441e-09).transl(5.63916370943789e-08, -4e-08, 0))
hIsland = hIsland.sub(rect(2.6741847981249737e-09, -5.490790724522551e-09).transl(1.0621515927975484e-08, -4e-08, 0))
hIsland = hIsland.add(rect(5.972688858625744e-09, 2.410266571688731e-09).transl(-6.507016687287257e-08, -4e-08, 0))
hIsland = hIsland.sub(rect(4.361729996542775e-09, -1.994534143969048e-09).transl(-5.988168499104869e-08, -4e-08, 0))
hIsland = hIsland.add(rect(4.191646624840883e-09, 1.1863105950034008e-10).transl(8.24697406860454e-08, -4e-08, 0))
hIsland = hIsland.sub(rect(6.784730271145916e-09, -1.9975746840750063e-10).transl(8.806264434797508e-08, -4e-08, 0))
hIsland = hIsland.sub(rect(8.532070205935061e-09, -1.3405347638446913e-09).transl(7.642874322502933e-08, -4e-08, 0))
hIsland = hIsland.sub(rect(2.224338696347535e-09, -2.0048044747832416e-09).transl(-3.331856402172812e-08, -4e-08, 0))
hIsland = hIsland.add(rect(7.12690625546206e-09, 1.930510420668159e-09).transl(7.593799447027963e-08, -4e-08, 0))
hIsland = hIsland.sub(rect(7.82208475839143e-09, -2.0709721775145267e-09).transl(-3.4086899911046665e-08, -4e-08, 0))
hIsland = hIsland.sub(rect(6.940795107934965e-09, -2.3394684472307365e-09).transl(-1.0327090403056174e-08, -4e-08, 0))
hIsland = hIsland.sub(rect(9.35257081009624e-09, -9.599264122233735e-10).transl(-3.849286798758014e-09, -4e-08, 0))
hIsland = hIsland.sub(rect(3.995295515467358e-09, -2.5409631599605745e-10).transl(-3.683675121168494e-10, -4e-08, 0))
hIsland = hIsland.add(rect(8.159447662694241e-09, 8.160607528397137e-10).transl(2.735840724809131e-09, -4e-08, 0))
hIsland = hIsland.add(rect(2.9698476280449074e-09, 3.757395135553426e-09).transl(-6.510161750000175e-08, -4e-08, 0))
hIsland = hIsland.add(rect(8.738968044378387e-09, 3.199523463673363e-09).transl(3.883961668929805e-09, -4e-08, 0))
hIsland = hIsland.add(rect(4.941373287577199e-09, 1.073274854415911e-09).transl(-8.660832116080791e-08, -4e-08, 0))
hIsland = hIsland.sub(rect(3.3463121241285355e-09, -3.1809389083986666e-11).transl(-9.045702423849043e-08, -4e-08, 0))
hIsland = hIsland.add(rect(3.632900050973172e-09, 2.1399885342481354e-09).transl(-3.632989544798348e-08, -4e-08, 0))
hIsland = hIsland.sub(rect(5.434834005237262e-09, -2.1062366690538925e-09).transl(7.506089035796106e-08, -4e-08, 0))
hIsland = hIsland.sub(rect(2.4253460572438126e-09, -6.726572015042647e-10).transl(5.8786732328756955e-09, -4e-08, 0))
hIsland = hIsland.sub(rect(8.868721336696434e-09, -5.004317000800775e-10).transl(2.4811539114190887e-08, -4e-08, 0))
hIsland = hIsland.sub(rect(4.339480363276078e-09, -9.697956624400422e-10).transl(-6.163703126769766e-08, -4e-08, 0))
hIsland = hIsland.sub(rect(4.621261797870742e-09, -1.2059461631070819e-09).transl(-3.088830612007497e-09, -4e-08, 0))
hIsland = hIsland.sub(rect(8.382287182446542e-09, -5.657603933641121e-09).transl(-1.7449995752058633e-08, -4e-08, 0))
hIsland = hIsland.sub(rect(3.819204735527972e-09, -1.6415850844210216e-09).transl(-1.0306194327315668e-07, -4e-08, 0))
hIsland = hIsland.add(rect(4.6876360619502354e-09, 1.4602709484324568e-09).transl(-7.882086323062383e-08, -4e-08, 0))
hIsland = hIsland.sub(rect(6.60426942210047e-09, -6.736547103193909e-10).transl(1.5511568915929398e-08, -4e-08, 0))
hIsland = hIsland.sub(rect(2.217818619600987e-09, -5.505283136692296e-10).transl(-9.154337128695204e-08, -4e-08, 0))
hIsland = hIsland.sub(rect(9.772913204168078e-09, -2.2713209243815488e-09).transl(-2.9546007079694277e-08, -4e-08, 0))
hIsland = hIsland.sub(rect(3.269527706793995e-09, -2.194490277668614e-10).transl(-1.2141347707631233e-08, -4e-08, 0))
hIsland = hIsland.sub(rect(6.9057333442695724e-09, -3.0321704927282904e-09).transl(-7.156549421503942e-08, -4e-08, 0))
hIsland = hIsland.add(rect(4.528813368608956e-09, 7.449169573878158e-10).transl(-5.351799947806911e-09, -4e-08, 0))
hIsland = hIsland.add(rect(9.21356767407597e-09, 6.438469858177131e-10).transl(4.8736315740131935e-08, -4e-08, 0))
hIsland = hIsland.sub(rect(9.530829143096818e-09, -2.2416053281997656e-09).transl(-1.1146605717992173e-09, -4e-08, 0))
hIsland = hIsland.add(rect(9.852295770727692e-09, 7.695448209931851e-10).transl(6.18688934641187e-08, -4e-08, 0))
hIsland = hIsland.sub(rect(6.9353845910826455e-09, -1.8251153633235986e-10).transl(5.593942472928797e-08, -4e-08, 0))
hIsland = hIsland.add(rect(2.3438652102280753e-09, 6.851526816931069e-10).transl(6.554149140978734e-08, -4e-08, 0))
hIsland = hIsland.add(rect(9.063781648584846e-09, 5.625335923555553e-12).transl(1.5812521516756213e-08, -4e-08, 0))
hIsland = hIsland.add(rect(4.0074665185444874e-09, 8.078721360242927e-10).transl(7.221660360663619e-08, -4e-08, 0))
hIsland = hIsland.add(rect(5.427151238946123e-09, 6.890111201056824e-10).transl(2.5139199206146357e-08, -4e-08, 0))
hIsland = hIsland.add(rect(4.3818603887648286e-09, 1.1381799007871712e-09).transl(-1.1060241602277363e-07, -3.145965083119248e-08, 0))
hIsland = hIsland.sub(rect(4.409453729523867e-09, -5.660252626562107e-09).transl(2.550250528324826e-08, -4e-08, 0))
hIsland = hIsland.sub(rect(6.984406265904465e-09, -6.040461445580654e-10).transl(-6.959837991335839e-08, -4e-08, 0))
hIsland = hIsland.add(rect(3.9899308153069615e-09, 6.471204705317142e-10).transl(9.856433472562219e-08, -4e-08, 0))
hIsland = hIsland.sub(rect(4.3785132008435755e-09, -3.6024841781086565e-10).transl(-4.091062213720158e-08, -4e-08, 0))
hIsland = hIsland.add(rect(2.5891286538323035e-09, 5.1354667186249145e-09).transl(-3.7214830901945324e-08, -4e-08, 0))
hIsland = hIsland.sub(rect(3.289662920916942e-09, -2.5749926125728686e-09).transl(9.880075446841363e-08, -4e-08, 0))
hIsland = hIsland.sub(rect(4.174670166466388e-09, -1.3982536536378706e-09).transl(2.6080985233712622e-08, -4e-08, 0))
hIsland = hIsland.sub(rect(5.350303329607974e-09, -9.785618034361704e-10).transl(4.1533801871890267e-08, -4e-08, 0))
hIsland = hIsland.add(rect(4.345945373521218e-09, 1.7369185135700607e-10).transl(9.096462651126389e-08, -4e-08, 0))
hIsland = hIsland.sub(rect(3.002773675548081e-09, -1.6672422286140474e-09).transl(-8.356719866729618e-08, -4e-08, 0))
hIsland = hIsland.sub(rect(8.68575027500816e-09, -2.124387049322331e-09).transl(-7.499159158701294e-08, -4e-08, 0))
hIsland = hIsland.add(rect(9.654963882873303e-09, 7.655402145537845e-10).transl(-3.8641948368121875e-08, -4e-08, 0))
hIsland = hIsland.sub(rect(5.007629462220736e-09, -1.2252818448641697e-09).transl(-4.760297274918247e-08, -4e-08, 0))
hIsland = hIsland.add(rect(8.48466939675058e-09, 1.146822357893532e-09).transl(-2.5803271821844477e-09, -4e-08, 0))
hIsland = hIsland.sub(rect(7.13614735134321e-09, -2.2877733400726288e-09).transl(-6.597433402415955e-08, -4e-08, 0))
hIsland = hIsland.add(rect(2.9549027760586157e-09, 2.0673659927201046e-09).transl(3.483009209603759e-08, -4e-08, 0))
hIsland = hIsland.add(rect(7.121112901888093e-09, 1.0279765159647724e-10).transl(-4.079631563154996e-08, -4e-08, 0))
hIsland = hIsland.add(rect(6.75315934522481e-09, 1.6754994617050049e-09).transl(-2.163188499451608e-08, -4e-08, 0))
hIsland = hIsland.sub(rect(7.780866963531755e-09, -1.1537368070003607e-10).transl(1.1208100490938037e-07, -2.663002378987973e-08, 0))
hIsland = hIsland.add(rect(2.919473580072106e-09, 7.345096698317321e-10).transl(-9.599493025125617e-08, -4e-08, 0))
hIsland = hIsland.sub(rect(7.5208876331234e-09, -6.127091498252152e-10).transl(-3.7743383862874127e-08, -4e-08, 0))
hIsland = hIsland.sub(rect(9.949863033846484e-09, -1.2737459023153927e-09).transl(-2.6404717452274483e-08, -4e-08, 0))
hIsland = hIsland.add(rect(3.597472842833977e-09, 1.2926477896212064e-09).transl(-3.835724880797708e-08, -4e-08, 0))
hIsland = hIsland.add(rect(2.485842172889873e-09, 2.1627683139749867e-09).transl(5.654577768653931e-08, -4e-08, 0))
hIsland = hIsland.sub(rect(5.723465230403975e-09, -1.342118058890452e-09).transl(3.441713171550232e-08, -4e-08, 0))
hIsland = hIsland.sub(rect(8.560141552858084e-09, -1.7911895650380192e-09).transl(3.468653064069158e-08, -4e-08, 0))
hIsland = hIsland.add(rect(4.257198098940018e-09, 2.2637568266044302e-10).transl(1.792269633297363e-08, -4e-08, 0))
hIsland = hIsland.add(rect(2.039461328822366e-09, 1.490453784768634e-09).transl(-6.326272811307177e-08, -4e-08, 0))
hIsland = hIsland.sub(rect(7.826797756005213e-09, -2.0207069478842697e-09).transl(2.7777600223937516e-08, -4e-08, 0))
hIsland = hIsland.sub(rect(4.598737192742779e-09, -9.256077465678251e-10).transl(1.88329278897166e-08, -4e-08, 0))
hIsland = hIsland.add(rect(6.4281632714199094e-09, 2.470135659468034e-09).transl(-4.4557881288345605e-08, -4e-08, 0))
hIsland = hIsland.sub(rect(9.930286301847457e-09, -2.2607388466467333e-09).transl(-9.873869156882206e-08, -4e-08, 0))
hIsland = hIsland.add(rect(6.299668816390955e-09, 3.796321765901185e-09).transl(1.1393408645585589e-07, -1.6818331822709157e-08, 0))
hIsland = hIsland.add(rect(6.051285833184619e-09, 1.6014326476957192e-09).transl(4.5636335415751005e-08, -4e-08, 0))
hIsland = hIsland.add(rect(8.05463817350294e-09, 2.0795865253086215e-09).transl(7.911286600463326e-10, -4e-08, 0))
hIsland = hIsland.add(rect(4.0085918736283905e-09, 5.242035137563817e-09).transl(8.516033862716711e-08, -4e-08, 0))
hIsland = hIsland.sub(rect(2.732971066322139e-09, -5.926694603373205e-10).transl(9.258634993488646e-08, -4e-08, 0))
hIsland = hIsland.add(rect(4.543978305878445e-09, 2.895385189358521e-09).transl(-3.7681143159309925e-08, -4e-08, 0))
hIsland = hIsland.sub(rect(8.847748432832149e-09, -1.3468091948741257e-09).transl(4.8376270703303536e-08, -4e-08, 0))
hIsland = hIsland.add(rect(3.2279507417732058e-09, 3.5510976374473484e-09).transl(-5.4962478087041105e-08, -4e-08, 0))
hIsland = hIsland.add(rect(9.959917143687097e-09, 3.0172352537829314e-09).transl(-4.876018636402915e-10, -4e-08, 0))
hIsland = hIsland.add(rect(4.153799403465961e-09, 6.673939002869838e-11).transl(1.0558579965303428e-07, -3.933656852572143e-08, 0))
hIsland = hIsland.add(rect(5.709564577256844e-09, 1.957574509813913e-09).transl(5.171835712006018e-08, -4e-08, 0))
hIsland = hIsland.add(rect(6.434562274780529e-09, 3.194410002790957e-10).transl(8.632150195977294e-08, -4e-08, 0))
hIsland = hIsland.add(rect(2.8486047632949205e-09, 4.208984562685771e-10).transl(1.1145576404754111e-07, -2.8883353107681546e-08, 0))
hIsland = hIsland.add(rect(8.87713577051159e-09, 2.5466525682571116e-09).transl(-9.157774357476856e-08, -4e-08, 0))
hIsland = hIsland.sub(rect(9.602525460317963e-09, -5.503726905963047e-10).transl(-4.352680379050962e-08, -4e-08, 0))
hIsland = hIsland.sub(rect(6.190686022797144e-09, -2.9623867058444404e-09).transl(-1.1367642489419668e-07, -1.8630747234240373e-08, 0))
hIsland = hIsland.sub(rect(3.913812762050662e-09, -2.9466754028827263e-09).transl(-8.960294354880021e-08, -4e-08, 0))
hIsland = hIsland.add(rect(6.844191757706238e-09, 3.7739571510516433e-10).transl(-1.1351411161028095e-07, -1.9666041634753913e-08, 0))
hIsland = hIsland.sub(rect(9.562264065642578e-09, -2.3923037028767332e-09).transl(-5.004325125951944e-08, -4e-08, 0))
hIsland = hIsland.add(rect(2.675188665720242e-09, 1.2017046391089686e-09).transl(7.360494521395085e-08, -4e-08, 0))
hIsland = hIsland.add(rect(5.4138186866394026e-09, 8.612821127279239e-11).transl(-6.367268277995297e-08, -4e-08, 0))
hIsland = hIsland.sub(rect(4.219245684238764e-09, -3.1901107631413486e-09).transl(7.948551508912562e-09, -4e-08, 0))
hIsland = hIsland.add(rect(8.205694362199963e-09, 1.8206339766458257e-09).transl(-3.286874477291112e-08, -4e-08, 0))
hIsland = hIsland.sub(rect(2.6727803690187733e-09, -1.5801602875623654e-09).transl(-5.849351659064774e-08, -4e-08, 0))
hIsland = hIsland.add(rect(8.054941329613694e-09, 3.7789567286568564e-09).transl(5.5139107970300745e-09, -4e-08, 0))
hIsland = hIsland.sub(rect(4.175748486854625e-09, -1.1001435085105685e-09).transl(-1.027237656266589e-07, -4e-08, 0))
hIsland = hIsland.add(rect(4.455839936227425e-09, 3.062706277086261e-09).transl(6.29010092632807e-08, -4e-08, 0))
hIsland = hIsland.sub(rect(4.570303560544482e-09, -1.1259337774439653e-09).transl(3.5717489930044904e-08, -4e-08, 0))
hIsland = hIsland.add(rect(2.123951927556391e-09, 1.8599137752142152e-09).transl(-6.614833703175865e-08, -4e-08, 0))
hIsland = hIsland.sub(rect(8.048503374845186e-09, -3.906278471147863e-10).transl(-2.9038410117005998e-08, -4e-08, 0))
hIsland = hIsland.add(rect(4.063719226169823e-09, 1.1347967513194183e-09).transl(-1.0647413610756047e-07, -3.863915984381816e-08, 0))
hIsland = hIsland.add(rect(6.9118793395045195e-09, 1.5942136853593076e-09).transl(-6.089583054127235e-08, -4e-08, 0))
hIsland = hIsland.sub(rect(5.334871444241555e-09, -5.935350157734573e-10).transl(-4.280838941408944e-08, -4e-08, 0))
hIsland = hIsland.sub(rect(8.797962276419804e-09, -2.8182551343075775e-10).transl(-1.3052434618326285e-08, -4e-08, 0))
hIsland = hIsland.sub(rect(8.388403933318875e-09, -6.08562204251112e-10).transl(3.899188940564652e-08, -4e-08, 0))
hIsland = hIsland.add(rect(7.0054633846044815e-09, 2.569363028639526e-10).transl(-2.8109415800923796e-08, -4e-08, 0))
hIsland = hIsland.sub(rect(6.047481052100495e-09, -3.697025538053159e-09).transl(-8.526070037454102e-08, -4e-08, 0))
hIsland = hIsland.sub(rect(6.0288096040804425e-09, -1.2918493550285985e-09).transl(7.34862467957811e-08, -4e-08, 0))
hIsland = hIsland.add(rect(8.139131591738974e-09, 1.708286549754694e-09).transl(3.852507881857926e-09, -4e-08, 0))
hIsland = hIsland.add(rect(8.857473424241218e-09, 1.6493190591156296e-09).transl(-1.4393848206500883e-08, -4e-08, 0))
hIsland = hIsland.sub(rect(3.919441943756137e-09, -4.846492675896197e-09).transl(-8.60192782340447e-08, -4e-08, 0))
hIsland = hIsland.sub(rect(8.14435425607018e-09, -1.7904871225617046e-09).transl(5.5577570539996155e-08, -4e-08, 0))
hIsland = hIsland.add(rect(6.669018433242487e-09, 2.0287867985701395e-09).transl(-8.390459836318768e-08, -4e-08, 0))
hIsland = hIsland.add(rect(6.325406521417386e-09, 1.479670226741519e-09).transl(-9.094798465000916e-08, -4e-08, 0))
hIsland = hIsland.sub(rect(4.19980690794114e-09, -2.6935827551332184e-09).transl(1.0404466610192407e-07, -3.995511112047186e-08, 0))
hIsland = hIsland.sub(rect(3.1944002873382013e-09, -2.036168389300787e-09).transl(7.360069215441722e-08, -4e-08, 0))
hIsland = hIsland.sub(rect(7.989121078856445e-09, -1.4928180958508098e-09).transl(5.787327495390105e-08, -4e-08, 0))
hIsland = hIsland.sub(rect(2.6285894718403712e-09, -9.57950397001635e-10).transl(8.72210639443591e-08, -4e-08, 0))
hIsland = hIsland.sub(rect(9.934131479845912e-09, -7.951951181923646e-10).transl(9.671449683185928e-08, -4e-08, 0))
hIsland = hIsland.add(rect(7.083559159908888e-09, 2.557560777458532e-09).transl(1.1370369799134027e-07, -1.844939447214693e-08, 0))
hIsland = hIsland.add(rect(7.588025071722476e-09, 2.598868707938539e-10).transl(3.439823684030856e-09, -4e-08, 0))
hIsland = hIsland.sub(rect(8.73671575114689e-09, -2.011462601004013e-09).transl(-8.060032876650438e-09, -4e-08, 0))
hIsland = hIsland.sub(rect(5.142677627010685e-09, -1.919979060714914e-09).transl(-1.5261555914043228e-09, -4e-08, 0))
hIsland = hIsland.add(rect(6.205371338979326e-09, 2.0576208934786112e-10).transl(-1.0618092352913563e-07, -3.8897882735202136e-08, 0))
hIsland = hIsland.add(rect(5.923742351494242e-09, 1.3373827782244665e-09).transl(-1.0238146853679167e-07, -4e-08, 0))
hIsland = hIsland.add(rect(2.727637137271109e-09, 2.493654877734724e-09).transl(-5.087798532348027e-08, -4e-08, 0))
hIsland = hIsland.sub(rect(6.9257838139259e-09, -7.835218678638392e-10).transl(-1.879603049614364e-08, -4e-08, 0))
hIsland = hIsland.add(rect(9.79775671058525e-09, 2.5939680150914293e-09).transl(-5.720104614074758e-08, -4e-08, 0))
hIsland = hIsland.add(rect(8.960903050213277e-09, 1.2946504647259106e-09).transl(4.381772201525191e-08, -4e-08, 0))
hIsland = hIsland.add(rect(5.008958345562449e-09, 2.045212810555894e-09).transl(-1.0513705031547295e-07, -3.959264276649586e-08, 0))
hIsland = hIsland.add(rect(2.067540747828931e-09, 1.2586258744622451e-10).transl(9.511144976164837e-08, -4e-08, 0))
hIsland = hIsland.sub(rect(9.265258667408652e-09, -1.3866600443151225e-09).transl(4.985921391031057e-08, -4e-08, 0))
hIsland = hIsland.add(rect(8.309130113570145e-09, 5.051580893517958e-10).transl(-2.5625058712991616e-08, -4e-08, 0))
hIsland = hIsland.sub(rect(5.071793751530257e-09, -3.148949167221019e-09).transl(-6.697494377660227e-08, -4e-08, 0))
hIsland = hIsland.add(rect(5.823047756318926e-09, 1.5551357627837833e-09).transl(-1.3446622204734064e-09, -4e-08, 0))
hIsland = hIsland.add(rect(3.3838442460198855e-09, 3.551704392569173e-10).transl(-1.1182958581934433e-08, -4e-08, 0))
hIsland = hIsland.sub(rect(3.810938483510045e-09, -1.1262340250760638e-09).transl(5.051351863872131e-08, -4e-08, 0))
hIsland = hIsland.add(rect(8.193435954331151e-09, 1.3086475774224883e-09).transl(-7.671576332318076e-08, -4e-08, 0))
hIsland = hIsland.add(rect(5.321295734483576e-09, 6.511843556778619e-10).transl(4.695943917938929e-08, -4e-08, 0))
hIsland = hIsland.add(rect(8.046677492054592e-09, 2.363587555041331e-09).transl(7.487543350808781e-08, -4e-08, 0))
hIsland = hIsland.add(rect(6.820416554074607e-09, 4.483259373178042e-10).transl(-1.0436212786592932e-07, -3.9887438681881295e-08, 0))
hIsland = hIsland.sub(rect(7.315500930841696e-09, -2.431311742633077e-09).transl(-3.955938886331159e-08, -4e-08, 0))
hIsland = hIsland.add(rect(9.915696539634998e-09, 4.1586076105190415e-10).transl(-7.731172971559553e-08, -4e-08, 0))
hIsland = hIsland.add(rect(6.705984606171257e-09, 3.4662261355643793e-09).transl(-1.1476550501913526e-07, -8.036511512719769e-09, 0))
hIsland = hIsland.sub(rect(4.069141493709458e-09, -7.9774591040802e-10).transl(8.39000700434905e-08, -4e-08, 0))
hIsland = hIsland.add(rect(7.90601763460967e-09, 1.392036038455852e-11).transl(4.38236560122562e-10, -4e-08, 0))
hIsland = hIsland.add(rect(2.1229696620751793e-09, 1.6960612557629878e-10).transl(-4.533517673083795e-08, -4e-08, 0))
hIsland = hIsland.sub(rect(6.455947201717434e-09, -2.03818162564092e-09).transl(7.892150756611424e-08, -4e-08, 0))
hIsland = hIsland.sub(rect(3.770941322854508e-09, -1.7523744955744749e-10).transl(8.433983052768783e-08, -4e-08, 0))
hIsland = hIsland.sub(rect(7.241143940824761e-09, -9.585352977539803e-10).transl(6.486226881319963e-09, -4e-08, 0))
hIsland = hIsland.sub(rect(4.955990465781723e-09, -4.794832636041473e-10).transl(-8.082115007686013e-08, -4e-08, 0))
hIsland = hIsland.add(rect(7.908985925501699e-09, 2.6267230548457344e-09).transl(-1.076052713480725e-07, -3.7364479301217774e-08, 0))
hIsland = hIsland.add(rect(5.342531584833151e-09, 2.095359997594511e-09).transl(5.296639385591292e-08, -4e-08, 0))
hIsland = hIsland.add(rect(4.734711010761657e-09, 1.4438738190341431e-10).transl(-5.2949950172828614e-08, -4e-08, 0))
hIsland = hIsland.add(rect(8.302580524578744e-09, 3.0954936248635595e-10).transl(4.667058192076777e-08, -4e-08, 0))
hIsland = hIsland.add(rect(5.649123919965225e-09, 2.4972625856275955e-09).transl(-1.0842863580643e-07, -3.6140209899361685e-08, 0))
hIsland = hIsland.add(rect(5.488763345428558e-09, 3.030662741210691e-09).transl(7.757926150598204e-08, -4e-08, 0))
hIsland = hIsland.sub(rect(9.751306632332125e-09, -1.5546621701893227e-09).transl(2.595471787281343e-09, -4e-08, 0))
hIsland = hIsland.sub(rect(2.883816455268445e-09, -1.7666970571539935e-09).transl(9.031722153427959e-08, -4e-08, 0))
hIsland = hIsland.sub(rect(2.040488595033521e-09, -2.6909531678334166e-09).transl(1.3274254036932184e-09, -4e-08, 0))
hIsland = hIsland.sub(rect(2.6374707409534414e-09, -2.3916334039449093e-10).transl(1.0750291830101902e-07, -3.74985955246092e-08, 0))
hIsland = hIsland.add(rect(4.429551324660316e-09, 2.1353661138378977e-09).transl(-3.1850576375860146e-08, -4e-08, 0))
hIsland = hIsland.add(rect(3.6114514895067416e-09, 2.7702203125573235e-09).transl(-8.811979169250516e-08, -4e-08, 0))
hIsland = hIsland.sub(rect(7.954083985942611e-09, -3.004879337500759e-09).transl(8.356901438654915e-08, -4e-08, 0))
hIsland = hIsland.sub(rect(8.905402753946412e-09, -1.5250713530334793e-09).transl(-3.32555347520212e-08, -4e-08, 0))
hIsland = hIsland.sub(rect(9.593376785953302e-09, -1.006876817379537e-09).transl(-4.79966221824803e-08, -4e-08, 0))
hIsland = hIsland.add(rect(6.330378748274508e-09, 3.2649555194895553e-09).transl(-5.879656449329875e-08, -4e-08, 0))
hIsland = hIsland.add(rect(8.224464616171845e-09, 1.1554249122285382e-09).transl(-2.2806226997016236e-08, -4e-08, 0))
hIsland = hIsland.add(rect(4.1605003378211795e-09, 5.774062082897351e-10).transl(1.0415993014115395e-07, -3.9934084397491445e-08, 0))
hIsland = hIsland.add(rect(8.8755507065524e-09, 3.042074703886528e-09).transl(1.024296367322899e-07, -4e-08, 0))
hIsland = hIsland.sub(rect(2.9236022599094165e-09, -2.156790077720479e-10).transl(1.938205060767555e-08, -4e-08, 0))
hIsland = hIsland.add(rect(7.342754203097332e-09, 1.6115514451494825e-09).transl(2.2794072834719664e-08, -4e-08, 0))
hIsland = hIsland.add(rect(6.810018847108377e-09, 2.9785961882573122e-09).transl(7.5876204157004e-08, -4e-08, 0))
hIsland = hIsland.sub(rect(9.259802423423986e-09, -2.115024029037338e-09).transl(7.990654927976183e-08, -4e-08, 0))
hIsland = hIsland.add(rect(8.491567649774297e-09, 3.531791641320958e-09).transl(3.1213161199004387e-09, -4e-08, 0))
hIsland = hIsland.sub(rect(2.0568975406601356e-09, -1.0047140366630752e-10).transl(4.6501030480961113e-08, -4e-08, 0))
hIsland = hIsland.add(rect(8.93958780222015e-09, 2.439075838456379e-09).transl(5.189948041158379e-08, -4e-08, 0))
hIsland = hIsland.add(rect(4.14559466260512e-09, 1.3262772627679427e-09).transl(1.2027866583405613e-08, -4e-08, 0))
hIsland = hIsland.add(rect(7.701395820550336e-09, 2.831520123837633e-11).transl(4.383830716363438e-08, -4e-08, 0))
hIsland = hIsland.sub(rect(9.301626751618166e-09, -1.509320925913884e-09).transl(1.100240723926039e-07, -3.2940155057947174e-08, 0))
hIsland = hIsland.add(rect(5.149037219065834e-09, 4.1526904083797787e-10).transl(-7.212188096105697e-08, -4e-08, 0))
hIsland = hIsland.sub(rect(9.924669868754753e-09, -2.2532552418594024e-09).transl(-6.51572093762514e-09, -4e-08, 0))
hIsland = hIsland.add(rect(3.962947545648396e-09, 7.491985803986476e-10).transl(-2.5906675332506073e-09, -4e-08, 0))
hIsland = hIsland.add(rect(5.928349679052696e-09, 2.1382539561349155e-09).transl(-9.203085228372468e-09, 4e-08, 0))
hIsland = hIsland.add(rect(3.1524886524333368e-09, 3.59862882653668e-09).transl(6.506280924228824e-08, 4e-08, 0))
hIsland = hIsland.add(rect(7.856787977538407e-09, 1.6510000055420547e-09).transl(5.98273698107462e-08, 4e-08, 0))
hIsland = hIsland.sub(rect(4.652452379589611e-09, -8.295404290485497e-10).transl(-2.957424096053803e-08, 4e-08, 0))
hIsland = hIsland.sub(rect(2.3374391670488797e-09, -9.207498850072831e-10).transl(7.576164161809356e-08, 4e-08, 0))
hIsland = hIsland.sub(rect(8.179712407288623e-09, -1.0502814378954247e-09).transl(3.086159819210654e-08, 4e-08, 0))
hIsland = hIsland.add(rect(7.0205574801579364e-09, 2.5172743939202474e-09).transl(-9.379441046984071e-08, 4e-08, 0))
hIsland = hIsland.sub(rect(4.596588673930668e-09, -2.2881144747708637e-10).transl(-4.4247610961707935e-08, 4e-08, 0))
hIsland = hIsland.add(rect(8.692846067836585e-09, 7.302139360804002e-10).transl(4.05700222533398e-08, 4e-08, 0))
hIsland = hIsland.add(rect(2.326808562711995e-09, 4.530057544286738e-10).transl(-6.122214003595048e-09, 4e-08, 0))
hIsland = hIsland.sub(rect(5.984487714184132e-09, -2.7435805378401434e-09).transl(-9.916985603169484e-08, 4e-08, 0))
hIsland = hIsland.add(rect(4.798265406436594e-09, 1.513633236316292e-09).transl(4.724441373577444e-09, 4e-08, 0))
hIsland = hIsland.sub(rect(7.026643381609377e-09, -5.579086824070836e-10).transl(-1.0177460717540626e-07, 4e-08, 0))
hIsland = hIsland.add(rect(8.582513005459017e-09, 1.0349347380250183e-09).transl(-7.7262251833475e-08, 4e-08, 0))
hIsland = hIsland.add(rect(3.784174808378555e-09, 3.740443739449961e-09).transl(6.472986490407636e-08, 4e-08, 0))
hIsland = hIsland.sub(rect(5.798158082775903e-09, -1.1916554873655114e-09).transl(3.5852954672487345e-08, 4e-08, 0))
hIsland = hIsland.add(rect(9.975226469445905e-09, 1.0004078451121161e-09).transl(3.912162537526957e-09, 4e-08, 0))
hIsland = hIsland.sub(rect(3.295595292911516e-09, -1.6308527298509619e-09).transl(3.807937960959818e-08, 4e-08, 0))
hIsland = hIsland.sub(rect(3.3382049554274184e-09, -4.792061260178324e-10).transl(-1.0808959848017915e-07, 3.667637421345782e-08, 0))
hIsland = hIsland.add(rect(5.852317579989351e-09, 8.488097760811737e-10).transl(8.359938625728997e-08, 4e-08, 0))
hIsland = hIsland.sub(rect(8.606472264545305e-09, -3.4665536956713814e-09).transl(9.9355358698024e-08, 4e-08, 0))
hIsland = hIsland.sub(rect(8.631417541190377e-09, -1.5962843506692488e-11).transl(9.236496739366402e-08, 4e-08, 0))
hIsland = hIsland.sub(rect(9.517162175996417e-09, -1.0550527500951996e-09).transl(-5.6188567299660165e-08, 4e-08, 0))
hIsland = hIsland.add(rect(9.759089727017579e-09, 4.332661225415625e-09).transl(4.490138938963232e-08, 4e-08, 0))
hIsland = hIsland.add(rect(4.654305579172236e-09, 1.801955361524937e-10).transl(2.7131684376654508e-09, 4e-08, 0))
hIsland = hIsland.sub(rect(5.291699209928881e-09, -3.3891351726746376e-09).transl(7.692768699002723e-08, 4e-08, 0))
hIsland = hIsland.add(rect(9.524933113586337e-09, 3.100404951937604e-09).transl(-4.9378164758414157e-08, 4e-08, 0))
hIsland = hIsland.sub(rect(2.504756840235073e-09, -2.3132790564219542e-09).transl(-7.436957286418022e-08, 4e-08, 0))
hIsland = hIsland.add(rect(4.4508188693770555e-09, 9.83927938904483e-10).transl(-1.0889661240158589e-07, 3.5322175766281944e-08, 0))
hIsland = hIsland.sub(rect(2.4135777869450906e-09, -1.907511902701571e-09).transl(9.325430366049555e-08, 4e-08, 0))
hIsland = hIsland.add(rect(7.900537122960296e-09, 2.8131616194810854e-10).transl(1.0932761894103103e-07, 3.448373463485167e-08, 0))
hIsland = hIsland.add(rect(9.929527566389481e-09, 2.1378171025697957e-09).transl(-5.1203237157254074e-08, 4e-08, 0))
hIsland = hIsland.add(rect(7.831759022668871e-09, 5.168510452490203e-10).transl(6.194863405519276e-08, 4e-08, 0))
hIsland = hIsland.add(rect(2.858654284283291e-09, 1.6775923855108103e-09).transl(-5.5102152570272735e-08, 4e-08, 0))
hIsland = hIsland.sub(rect(7.739263021173149e-09, -1.467270540416684e-09).transl(1.0887367703044876e-07, 3.536445432472164e-08, 0))
hIsland = hIsland.sub(rect(4.640165686928108e-09, -1.8279873644350633e-09).transl(-8.219128494012937e-08, 4e-08, 0))
hIsland = hIsland.sub(rect(5.232300555980479e-09, -1.9936437302731665e-09).transl(2.9908332584313204e-08, 4e-08, 0))
hIsland = hIsland.sub(rect(3.5643206368286e-09, -1.812125273327764e-09).transl(-5.321025280349667e-08, 4e-08, 0))
hIsland = hIsland.add(rect(8.124428230968437e-09, 1.661175073391908e-09).transl(-7.843417748767629e-08, 4e-08, 0))
hIsland = hIsland.sub(rect(2.8755658544606258e-09, -1.568057692939498e-09).transl(-5.5774151679506915e-08, 4e-08, 0))
hIsland = hIsland.sub(rect(2.0381149585085494e-09, -1.8312942424448494e-09).transl(-3.054597924757181e-08, 4e-08, 0))
hIsland = hIsland.add(rect(2.748749490111793e-09, 1.7925008682935424e-09).transl(-6.695098117314666e-08, 4e-08, 0))
hIsland = hIsland.add(rect(4.4667402873535685e-09, 2.8978415276498488e-09).transl(-7.043847928787513e-08, 4e-08, 0))
hIsland = hIsland.sub(rect(5.474321864260986e-09, -1.0831365772329743e-09).transl(-1.0614335858040265e-07, 3.892897402010859e-08, 0))
hIsland = hIsland.add(rect(9.31651173016493e-09, 7.675768972846889e-10).transl(1.0639842114252207e-07, 3.870870789122474e-08, 0))
hIsland = hIsland.add(rect(2.5237075480151034e-09, 4.194536053352319e-09).transl(6.674749258977606e-08, 4e-08, 0))
hIsland = hIsland.add(rect(4.772617019123165e-09, 2.4472941616135647e-09).transl(-8.10867324464629e-08, 4e-08, 0))
hIsland = hIsland.sub(rect(2.2006617934694975e-09, -2.164429211817725e-09).transl(5.857206085063179e-08, 4e-08, 0))
hIsland = hIsland.sub(rect(8.336307335552524e-09, -8.693713633918191e-10).transl(-4.547195090732036e-08, 4e-08, 0))
hIsland = hIsland.add(rect(2.8080825013245367e-09, 2.1073951050083438e-09).transl(3.263782418621244e-08, 4e-08, 0))
hIsland = hIsland.add(rect(7.902807219189766e-09, 1.3305739290942602e-10).transl(9.838665876600683e-08, 4e-08, 0))
hIsland = hIsland.add(rect(6.246027454993487e-09, 5.345983782146988e-10).transl(-9.142460437203436e-08, 4e-08, 0))
hIsland = hIsland.add(rect(3.924063434679045e-09, 5.678946208611652e-10).transl(3.9541284649764103e-08, 4e-08, 0))
hIsland = hIsland.add(rect(7.884727199831096e-09, 7.85198322626436e-10).transl(-1.0257706259112322e-07, 4e-08, 0))
hIsland = hIsland.add(rect(5.874372668966534e-09, 1.8228457961531141e-09).transl(-9.609376584025594e-08, 4e-08, 0))
hIsland = hIsland.add(rect(6.393810151605747e-09, 2.3231796899732e-09).transl(6.262493848055483e-08, 4e-08, 0))
hIsland = hIsland.add(rect(8.737694888485876e-09, 5.820241567635272e-10).transl(1.0678171750568202e-07, 3.833673588434091e-08, 0))
hIsland = hIsland.add(rect(5.8264225020903005e-09, 1.0506258850369434e-09).transl(1.0506292954205164e-07, 3.96288644297171e-08, 0))
hIsland = hIsland.sub(rect(3.4748956940331884e-09, -1.4966550112945693e-09).transl(-6.753461943008165e-08, 4e-08, 0))
hIsland = hIsland.add(rect(4.083199889996614e-09, 2.3816035165157404e-09).transl(-9.857922252346965e-08, 4e-08, 0))
hIsland = hIsland.add(rect(2.1201525108571355e-09, 4.394570776253329e-09).transl(-2.4082717910093872e-08, 4e-08, 0))
[...]
hIsland = hIsland.add(rect(7.351104098536708e-09, 1.8745706139570506e-09).transl(1.3482231757744272e-08, 4e-08, 0))
hIsland = hIsland.add(rect(8.108092358942416e-09, 1.5211252667388106e-09).transl(8.319288636436126e-08, 4e-08, 0))
hIsland = hIsland.sub(rect(5.835154364767466e-09, -7.473459810232216e-10).transl(8.782582470864707e-08, 4e-08, 0))
hIsland = hIsland.add(rect(8.300637897921788e-09, 1.8596013011730702e-09).transl(-2.834268077916333e-08, 4e-08, 0))
hIsland = hIsland.sub(rect(8.403979628411024e-09, -1.1791900124746105e-09).transl(-7.831140628334764e-08, 4e-08, 0))
hIsland = hIsland.add(rect(5.85799943128104e-09, 1.19759173004142e-09).transl(2.9151284078297256e-08, 4e-08, 0))
hIsland = hIsland.add(rect(5.853879982470746e-09, 1.1078928593094784e-09).transl(-8.163282406742284e-08, 4e-08, 0))
hIsland = hIsland.sub(rect(9.10895066236415e-09, -1.307082798084026e-09).transl(9.463969427396612e-08, 4e-08, 0))
hIsland = hIsland.sub(rect(7.24456423185931e-09, -1.0348038566183945e-09).transl(8.961051867961103e-08, 4e-08, 0))
hIsland = hIsland.sub(rect(5.026052950924838e-09, -1.7182101950082517e-09).transl(9.308061305815176e-08, 4e-08, 0))
hIsland = hIsland.sub(rect(2.567478238635924e-09, -1.2260733926062289e-09).transl(1.0238799446806406e-07, 4e-08, 0))
hIsland = hIsland.sub(rect(2.461484982560878e-09, -1.0211876485433034e-09).transl(-5.587783435550919e-08, 4e-08, 0))
hIsland = hIsland.sub(rect(2.8988943073818833e-09, -4.551886585725995e-09).transl(-1.1118979868493558e-07, 2.974207891514632e-08, 0))
hIsland = hIsland.sub(rect(8.265274101857798e-09, -2.779543293953495e-09).transl(4.8702879224066175e-08, 4e-08, 0))
hIsland = hIsland.add(rect(7.960912171817898e-09, 2.208592323219275e-09).transl(-6.730176349882754e-08, 4e-08, 0))
hIsland = hIsland.sub(rect(4.98408476689799e-09, -1.0071959574960258e-09).transl(8.51984347820755e-08, 4e-08, 0))
hIsland = hIsland.sub(rect(7.896263294744015e-09, -1.910584648584006e-09).transl(-4.326628279610736e-08, 4e-08, 0))
hIsland = hIsland.add(rect(5.9463040138835814e-09, 9.351630792695509e-10).transl(-1.0935110048675241e-07, 3.443559473683087e-08, 0))
hIsland = hIsland.sub(rect(7.551677133756692e-09, -1.093542686615936e-09).transl(1.0809599015017498e-07, 3.666668950413132e-08, 0))
hIsland = hIsland.add(rect(3.833780927395439e-09, 1.7979992735568798e-10).transl(9.060609081154025e-08, 4e-08, 0))
hIsland = hIsland.add(rect(8.115199656440683e-09, 1.2659305241081071e-09).transl(6.542507099898005e-08, 4e-08, 0))
hIsland = hIsland.add(rect(8.581676213856832e-09, 1.7522586596551982e-09).transl(-2.264282645808527e-08, 4e-08, 0))
hIsland = hIsland.add(rect(5.473318958386041e-09, 1.6492162243079173e-09).transl(-9.529579211949832e-08, 4e-08, 0))
hIsland = hIsland.add(rect(2.6982697774763678e-09, 7.035035269030639e-10).transl(-9.23797708266209e-08, 4e-08, 0))
hIsland = hIsland.add(rect(8.430819171205267e-09, 4.674076198096811e-10).transl(2.1519857501765888e-08, 4e-08, 0))
hIsland = hIsland.sub(rect(3.712018210958345e-09, -6.382590373675228e-10).transl(-7.882356742258427e-08, 4e-08, 0))
hIsland = hIsland.add(rect(2.047714825809128e-09, 1.1443949804582813e-09).transl(-2.3361891608214135e-08, 4e-08, 0))
hIsland = hIsland.sub(rect(4.650199617137223e-09, -7.446896072992847e-10).transl(-1.5231814368955985e-10, 4e-08, 0))
hIsland = hIsland.sub(rect(8.274615944600627e-09, -1.0790885994248487e-09).transl(-9.265896835675402e-08, 4e-08, 0))
hIsland = hIsland.sub(rect(5.008866175814409e-09, -1.3603944630802584e-09).transl(-7.708838207985106e-08, 4e-08, 0))
hIsland = hIsland.add(rect(4.55631258460368e-09, 1.1628946461477554e-10).transl(5.968255759261911e-08, 4e-08, 0))
hIsland = hIsland.sub(rect(8.93849509932749e-09, -4.1245803692925436e-10).transl(-3.9266556762847846e-08, 4e-08, 0))
hIsland = hIsland.sub(rect(2.77707902277305e-09, -3.193599361243424e-11).transl(7.798790692937829e-08, 4e-08, 0))
hIsland = hIsland.add(rect(7.572338273018785e-09, 9.244676190965221e-10).transl(4.763836870698323e-08, 4e-08, 0))
hIsland = hIsland.sub(rect(6.209705443587277e-09, -3.6483534823444585e-09).transl(-4.1127141409542895e-08, 4e-08, 0))
hIsland = hIsland.sub(rect(7.603637157201971e-09, -1.9776470685028586e-09).transl(-7.557847445068706e-09, 4e-08, 0))
hIsland = hIsland.sub(rect(9.39212581583314e-09, -8.460391930940969e-10).transl(-7.893700334649246e-08, 4e-08, 0))
hIsland = hIsland.add(rect(4.849779808281743e-09, 2.25253822753789e-10).transl(1.0635220171546346e-08, 4e-08, 0))
hIsland = hIsland.sub(rect(8.876772838148181e-09, -3.1083893133498808e-09).transl(2.7386227621820182e-08, 4e-08, 0))
hIsland = hIsland.sub(rect(7.622805140998807e-09, -4.88108819807696e-09).transl(3.197643258540019e-08, 4e-08, 0))
hIsland = hIsland.add(rect(2.493362798501437e-09, 2.367890659444209e-09).transl(3.156660365169383e-08, 4e-08, 0))
hIsland = hIsland.add(rect(3.53077424431819e-09, 2.952309366509539e-10).transl(2.9331612348086108e-08, 4e-08, 0))
hIsland = hIsland.sub(rect(6.894077050106365e-09, -1.2368717631907424e-09).transl(3.4824609791679086e-08, 4e-08, 0))
hIsland = hIsland.add(rect(8.49605895906041e-09, 1.4761229279289222e-09).transl(-4.6880928359761784e-08, 4e-08, 0))
hIsland = hIsland.sub(rect(4.382454704314104e-09, -2.684046355359374e-09).transl(-1.2659825663092711e-08, 4e-08, 0))
hIsland = hIsland.add(rect(5.0413738302839254e-09, 8.825343227712784e-10).transl(-2.9837323333348875e-08, 4e-08, 0))
hIsland = hIsland.sub(rect(7.574898807724437e-09, -1.4144979792458842e-09).transl(-8.859185508794189e-08, 4e-08, 0))
hIsland = hIsland.add(rect(7.810441481393223e-09, 3.6711353640326993e-09).transl(3.4409671037460614e-08, 4e-08, 0))
hIsland = hIsland.add(rect(6.923409985148579e-09, 2.152762030732614e-09).transl(3.609709221910664e-08, 4e-08, 0))
hIsland = hIsland.add(rect(5.018770673650314e-09, 1.4388562362103748e-10).transl(-1.0747846836783501e-07, 3.753006236606719e-08, 0))
hIsland = hIsland.sub(rect(7.105066794052772e-09, -8.810465702523927e-10).transl(9.252648516408963e-08, 4e-08, 0))
hIsland = hIsland.add(rect(7.3659054221584415e-09, 4.315283220975592e-09).transl(9.38366158451595e-08, 4e-08, 0))
hIsland = hIsland.sub(rect(2.271859092407155e-09, -2.4999726468855867e-10).transl(-4.592765963203823e-08, 4e-08, 0))
hIsland = hIsland.add(rect(2.121028854866366e-09, 1.605507976743628e-10).transl(1.1387179957451274e-07, 1.727816190816941e-08, 0))
hIsland = hIsland.sub(rect(5.749149828483283e-09, -2.4759761875715083e-09).transl(6.629082097439828e-08, 4e-08, 0))
hIsland = hIsland.sub(rect(3.614900190118698e-09, -2.3966622147645363e-09).transl(-2.616902529497177e-08, 4e-08, 0))
hIsland = hIsland.sub(rect(3.1123159172102687e-09, -2.0489945046864927e-10).transl(5.100689609400093e-08, 4e-08, 0))
hIsland = hIsland.sub(rect(9.069370846466438e-09, -3.334392421752189e-09).transl(1.1112695925383409e-07, 2.993719804148643e-08, 0))
hIsland = hIsland.sub(rect(4.298443992724145e-09, -1.2342851049283214e-09).transl(-9.939873627398266e-08, 4e-08, 0))
hIsland = hIsland.sub(rect(8.252247612782953e-09, -6.724014498667291e-11).transl(8.416690841313391e-08, 4e-08, 0))
hIsland = hIsland.add(rect(6.194811932312521e-09, 6.393982545494755e-10).transl(-1.120383837070931e-07, 2.6795254760432657e-08, 0))
hIsland = hIsland.add(rect(3.650199773082351e-09, 2.5782308209387913e-09).transl(4.6675260013780647e-08, 4e-08, 0))
hIsland = hIsland.sub(rect(5.212792632303507e-09, -7.305966057811959e-10).transl(-6.573933461694057e-08, 4e-08, 0))
hIsland = hIsland.sub(rect(3.9772017040968705e-09, -1.3525601385851528e-09).transl(9.206231267454831e-08, 4e-08, 0))
hIsland = hIsland.add(rect(2.9390042067842438e-09, 5.386619979415825e-10).transl(-4.754797357186167e-09, 4e-08, 0))
hIsland = hIsland.sub(rect(3.4078038591618187e-09, -1.0323461579741202e-09).transl(-5.9469071996394086e-08, 4e-08, 0))
hIsland = hIsland.sub(rect(9.673234489184182e-09, -2.3708926378700426e-09).transl(-1.2845593007689286e-08, 4e-08, 0))
hIsland = hIsland.sub(rect(2.029765730934451e-09, -5.155043871689323e-10).transl(-7.786867216464078e-08, 4e-08, 0))
hIsland = hIsland.add(rect(9.229769173463975e-09, 3.7695819176319784e-10).transl(-1.0380845988457604e-08, 4e-08, 0))
hIsland = hIsland.sub(rect(3.886354687660436e-09, -7.878810708400917e-10).transl(1.1481654801508236e-07, 7.116202995399681e-09, 0))
hIsland = hIsland.add(rect(9.827718046950282e-09, 6.545965140631009e-10).transl(-5.536638018603129e-08, 4e-08, 0))
hIsland = hIsland.add(rect(9.885341662113717e-09, 4.171269912895745e-09).transl(5.794417249600401e-08, 4e-08, 0))
hIsland = hIsland.sub(rect(2.6835054377511415e-09, -1.1413095413200509e-09).transl(-2.677412356435322e-08, 4e-08, 0))
hIsland = hIsland.sub(rect(2.6747664272790364e-09, -1.9366254522076623e-09).transl(-1.815400923024142e-08, 4e-08, 0))
hIsland = hIsland.add(rect(3.2525116270070575e-09, 1.5594181025601822e-10).transl(4.380698994719047e-08, 4e-08, 0))
hIsland = hIsland.add(rect(7.833716288960914e-09, 5.559959702444265e-10).transl(-9.621686505199065e-08, 4e-08, 0))
hIsland = hIsland.sub(rect(7.39153704339528e-09, -8.552586082787625e-10).transl(1.164408095534773e-08, 4e-08, 0))
hIsland = hIsland.sub(rect(2.013235208516492e-09, -1.433126483897497e-09).transl(4.229616761507726e-08, 4e-08, 0))
hIsland = hIsland.sub(rect(7.4011320660892604e-09, -1.7140907049979529e-09).transl(-6.731607618329155e-08, 4e-08, 0))
hIsland = hIsland.sub(rect(3.0972388414435255e-09, -1.77435404043785e-09).transl(9.269720246568597e-08, 4e-08, 0))
hIsland = hIsland.sub(rect(5.706936180644868e-09, -3.1219092673361065e-09).transl(-3.6282765441203106e-08, 4e-08, 0))
hIsland = hIsland.sub(rect(6.081686754653597e-09, -3.000147227159554e-09).transl(-7.528522455816673e-08, 4e-08, 0))
hIsland = hIsland.add(rect(7.571783668029496e-09, 1.3926454340087566e-09).transl(6.814395063840805e-08, 4e-08, 0))
hIsland = hIsland.add(rect(2.237537453914495e-09, 1.9407789132095872e-09).transl(-1.0586317804669267e-07, 3.914633717750847e-08, 0))
hIsland = hIsland.add(rect(9.136751136468282e-09, 1.3080020990333638e-09).transl(5.5726116151912715e-08, 4e-08, 0))
hIsland = hIsland.sub(rect(9.437527818662695e-09, -1.8252144173996585e-09).transl(6.510036635098946e-08, 4e-08, 0))
hIsland = hIsland.sub(rect(4.963555502155833e-09, -9.398360671980396e-10).transl(-9.65158740265643e-08, 4e-08, 0))
hIsland = hIsland.add(rect(3.0746268414262535e-09, 2.2346926589597332e-09).transl(-9.4442049239168e-08, 4e-08, 0))
hIsland = hIsland.add(rect(2.5411989752792652e-09, 1.9319636375869567e-09).transl(-3.909091300906101e-08, 4e-08, 0))
hIsland = hIsland.add(rect(4.403427796775217e-09, 4.141886002018867e-09).transl(-9.547328240049871e-08, 4e-08, 0))
hIsland = hIsland.add(rect(4.452168784354905e-09, 8.001093327615792e-10).transl(4.570837041953901e-08, 4e-08, 0))
hIsland = hIsland.add(rect(6.8497165527264096e-09, 4.50336902993095e-10).transl(-3.570312204986833e-08, 4e-08, 0))
hIsland = hIsland.sub(rect(7.666309410527677e-09, -4.244124256011958e-10).transl(-7.847315482760545e-08, 4e-08, 0))
hIsland = hIsland.add(rect(3.3883745638709277e-09, 4.179651682620792e-10).transl(5.6934003139898274e-08, 4e-08, 0))
hIsland = hIsland.add(rect(4.0528336956562636e-09, 2.275123576322796e-09).transl(1.0387436621919092e-07, 3.9978799664836156e-08, 0))
hIsland = hIsland.add(rect(2.4238889228289624e-09, 2.3844549494380043e-09).transl(8.211733415325779e-08, 4e-08, 0))
hIsland = hIsland.sub(rect(7.95392725875177e-09, -1.125669631092213e-09).transl(-4.8890027271836763e-08, 4e-08, 0))
hIsland = hIsland.add(rect(4.054648841886347e-09, 3.2660122658967776e-09).transl(5.8494971420949166e-08, 4e-08, 0))
hIsland = hIsland.sub(rect(7.581406402358906e-09, -2.4167138488653535e-09).transl(-1.2398829956429376e-08, 4e-08, 0))
hIsland = hIsland.sub(rect(6.977645927041105e-09, -5.537179239864003e-09).transl(4.544866838968207e-08, 4e-08, 0))
hIsland = hIsland.add(rect(7.501453211748581e-09, 7.43178827604728e-10).transl(-7.630432240854929e-08, 4e-08, 0))
hIsland = hIsland.sub(rect(6.636431470127342e-09, -1.564821632992577e-09).transl(-6.503262506870757e-08, 4e-08, 0))
hIsland = hIsland.add(rect(4.5624401021915805e-09, 1.4415908991100263e-09).transl(-2.6786610719405783e-08, 4e-08, 0))
hIsland = hIsland.add(rect(9.149280177698683e-09, 1.2538871004768578e-09).transl(9.211185851553772e-09, 4e-08, 0))
hIsland = hIsland.sub(rect(7.0183711849462984e-09, -3.6195304760241877e-10).transl(-4.522008696719893e-08, 4e-08, 0))
hIsland = hIsland.add(rect(6.702616399122184e-09, 2.79793802944971e-09).transl(9.37272136790407e-08, 4e-08, 0))
hIsland = hIsland.sub(rect(7.1485018984041586e-09, -2.1841148054167717e-09).transl(1.715645717631625e-08, 4e-08, 0))
hIsland = hIsland.add(rect(7.51531720261465e-09, 2.6326733331814925e-09).transl(-1.1311081491863279e-07, 2.196604676042006e-08, 0))
hIsland = hIsland.add(rect(2.6149707250992517e-09, 2.321024141660068e-09).transl(-7.271052924973616e-08, 4e-08, 0))
hIsland = hIsland.sub(rect(4.575606725207107e-09, -2.891151151375699e-10).transl(1.1004824715668728e-07, 3.2882069703358916e-08, 0))
hIsland = hIsland.sub(rect(3.1290228709538354e-09, -1.2228944032094343e-10).transl(-1.9614267598680778e-08, 4e-08, 0))
hIsland = hIsland.sub(rect(4.476911421533419e-09, -3.248447193866216e-11).transl(-9.530210343156487e-08, 4e-08, 0))
hIsland = hIsland.add(rect(8.911263624776279e-09, 1.8351982031986988e-09).transl(-6.790489145181754e-08, 4e-08, 0))
hIsland = hIsland.sub(rect(7.035385921172438e-09, -7.791870232963693e-10).transl(3.455263780722167e-08, 4e-08, 0))
hIsland = hIsland.add(rect(4.490775368773017e-09, 1.6299076053632419e-09).transl(-1.0117737211463169e-07, 4e-08, 0))
hIsland = hIsland.add(rect(5.813756698444501e-09, 1.3727985651244923e-10).transl(3.7538931489580746e-08, 4e-08, 0))
hIsland = hIsland.add(rect(9.228745050241279e-09, 6.009648750125523e-11).transl(-4.292768234771728e-08, 4e-08, 0))
hIsland = hIsland.sub(rect(2.973099081964339e-09, -1.623064428434071e-10).transl(-5.236875398107823e-08, 4e-08, 0))
hIsland = hIsland.add(rect(9.491017331785617e-09, 6.613819783719154e-10).transl(4.7645132031850374e-08, 4e-08, 0))
hIsland = hIsland.sub(rect(3.841842059555968e-09, -1.2395615100881315e-09).transl(-3.3971664041165543e-09, 4e-08, 0))
hIsland = hIsland.add(rect(6.9863495834989704e-09, 2.5193364216468856e-10).transl(2.1564194485729174e-08, 4e-08, 0))
hIsland = hIsland.sub(rect(8.249896429812216e-09, -2.2154022567767945e-09).transl(5.246880486375046e-08, 4e-08, 0))
hIsland = hIsland.add(rect(6.405913896842918e-09, 1.0865915698598223e-09).transl(3.262952787992244e-08, 4e-08, 0))
hIsland = hIsland.sub(rect(5.178474454633131e-09, -2.006088331486689e-09).transl(1.1216318762504746e-07, 2.6306135516278854e-08, 0))
hIsland = hIsland.add(rect(3.5984775499464858e-09, 1.5092942904680474e-10).transl(-5.385053421354697e-08, 4e-08, 0))
hIsland = hIsland.sub(rect(3.472597265263456e-09, -8.219252661609361e-11).transl(-6.181073615115747e-08, 4e-08, 0))
hIsland = hIsland.sub(rect(5.491692329658683e-09, -3.940441608061894e-09).transl(-9.629283453485017e-08, 4e-08, 0))
hIsland = hIsland.add(rect(5.311744000356588e-09, 8.192945097318346e-10).transl(9.53718914673222e-08, 4e-08, 0))
hIsland = hIsland.sub(rect(7.109669389613893e-09, -2.0994757401848727e-09).transl(7.112741358507047e-08, 4e-08, 0))
hIsland = hIsland.sub(rect(7.432931333402642e-09, -2.799967769315156e-10).transl(-1.687560367347014e-08, 4e-08, 0))
hIsland = hIsland.add(rect(2.3926023175561575e-09, 2.441275968319095e-09).transl(-9.832794782326618e-08, 4e-08, 0))
hIsland = hIsland.add(rect(7.98027143742251e-09, 2.47951026290555e-10).transl(3.472909641317695e-08, 4e-08, 0))
hIsland = hIsland.sub(rect(3.77207665968192e-09, -2.0780956890524614e-09).transl(-7.374740595409818e-08, 4e-08, 0))
hIsland = hIsland.sub(rect(3.6348452566216046e-09, -1.8677701933021724e-11).transl(5.203551691624927e-08, 4e-08, 0))
hIsland = hIsland.add(rect(2.038050703913698e-09, 9.58495884532749e-10).transl(2.1983403410393894e-08, 4e-08, 0))
hIsland = hIsland.sub(rect(3.223010820432067e-09, -1.9975179551398415e-09).transl(-4.6028935743191046e-08, 4e-08, 0))
hIsland = hIsland.sub(rect(6.9524685069303694e-09, -4.5594271691865564e-10).transl(5.042939458934499e-08, 4e-08, 0))
hIsland = hIsland.sub(rect(3.178222807549035e-09, -1.1762468391608347e-09).transl(-3.693857386510889e-08, 4e-08, 0))
hIsland = hIsland.add(rect(4.422856535153614e-09, 1.447835712188853e-09).transl(6.972869106190767e-09, 4e-08, 0))
hIsland = hIsland.add(rect(8.81435983324765e-09, 2.0839653508965686e-09).transl(-8.83803303550083e-08, 4e-08, 0))
hIsland = hIsland.sub(rect(5.064397395633477e-09, -3.1186115946172415e-10).transl(-4.288444454613307e-08, 4e-08, 0))
hIsland = hIsland.sub(rect(4.466034793909649e-09, -2.41088385421676e-09).transl(-4.6710572342517634e-09, 4e-08, 0))
hIsland = hIsland.sub(rect(5.108974935135692e-09, -2.086855400207394e-09).transl(-1.0681313049108708e-07, 3.830403357305298e-08, 0))
hIsland = hIsland.add(rect(9.666460170256668e-09, 2.048067419290903e-09).transl(-4.062511778998574e-08, 4e-08, 0))
hIsland = hIsland.sub(rect(6.903028311252885e-09, -1.145901198965225e-09).transl(-1.0756998360388916e-07, 3.741115484635233e-08, 0))
hIsland = hIsland.sub(rect(2.8200558442306686e-09, -5.504515657418884e-10).transl(3.556337634505793e-08, 4e-08, 0))
hIsland = hIsland.add(rect(9.285729225185781e-09, 1.8334060776959118e-11).transl(9.220590894111248e-08, 4e-08, 0))
hIsland = hIsland.add(rect(3.8716195382283e-09, 1.2225470231281907e-09).transl(6.492627572030462e-08, 4e-08, 0))
hIsland = hIsland.sub(rect(9.951764881571493e-09, -1.0776693758698603e-09).transl(-2.1495865219966273e-08, 4e-08, 0))
hIsland = hIsland.sub(rect(9.632067520700673e-09, -5.023860844016499e-10).transl(-9.526550100993402e-08, 4e-08, 0))
hIsland = hIsland.add(rect(5.920520404547825e-09, 1.1439671090313974e-09).transl(-3.1212781068480525e-08, 4e-08, 0))
hIsland = hIsland.sub(rect(6.639691921812703e-09, -1.034044011169842e-09).transl(4.4803660959100375e-08, 4e-08, 0))
hIsland = hIsland.sub(rect(5.817172473184452e-09, -9.437842737175325e-10).transl(4.182547077624821e-08, 4e-08, 0))
hIsland = hIsland.sub(rect(7.112056212771963e-09, -1.1726798862104505e-09).transl(-3.235821257179308e-08, 4e-08, 0))
hIsland = hIsland.add(rect(3.229262761359352e-09, 2.3977608559542992e-09).transl(3.939870468383424e-08, 4e-08, 0))
hIsland = hIsland.add(rect(7.549553630614558e-09, 1.0216969195467307e-09).transl(5.616357524838748e-08, 4e-08, 0))
hIsland = hIsland.sub(rect(2.223095371609434e-09, -8.323485214655367e-11).transl(6.262256453302118e-08, 4e-08, 0))
hIsland = hIsland.add(rect(5.108792880909814e-09, 3.857223640605024e-10).transl(-2.4711125246366778e-08, 4e-08, 0))
hIsland = hIsland.sub(rect(5.268826695348493e-09, -3.1666216029479867e-10).transl(-1.0682840534179398e-07, 3.828800901190392e-08, 0))
hIsland = hIsland.sub(rect(3.1148878613896892e-09, -8.34618465666112e-10).transl(-8.560423373569173e-08, 4e-08, 0))
hIsland = hIsland.add(rect(6.561149179238528e-09, 1.2469106302314444e-09).transl(6.732170353987218e-08, 4e-08, 0))
hIsland = hIsland.sub(rect(5.715217102615728e-09, -7.259819040796263e-10).transl(5.809964937451633e-08, 4e-08, 0))
hIsland = hIsland.sub(rect(2.1864844621481857e-09, -5.556220753188309e-10).transl(3.8872676410755574e-08, 4e-08, 0))
vIsland = hIsland.rotz(pi / 2)
vIslands = vIslands.add(vIsland.transl(0, -a/2, 0))
DefRegion(1, hIslands)
DefRegion(2, vIslands)
TableAdd(m_full.Region(1))
TableAdd(m_full.Region(2))
setgeom(hIslands.add(vIslands))
save(geom)
r2o2 := sqrt(2) / 2
m = RandomMagSeed(4)
B_ext = vector(Bmax*r2o2, Bmax*r2o2, 0)
relax()
minimize()
for B := Bmax; B >= -Bmax; B -= Bstep {
	B_ext = vector(B*r2o2, B*r2o2, 0)
	minimize()
	tablesave()
}
//********************************************************************//
//Please cite the following references, relevant for your simulation. //
//See bibtex file in output folder for justification.                 //
//********************************************************************//
//   * Vansteenkiste et al., AIP Adv. 4, 107133 (2014).
//   * Exl et al., J. Appl. Phys. 115, 17D118 (2014).
