# t (s)	mx ()	my ()	mz ()	B_extx (T)	B_exty (T)	B_extz (T)	m_fullx (A/m)	m_fully (A/m)	m_fullz (A/m)	m_full.region1x (A/m)	m_full.region1y (A/m)	m_full.region1z (A/m)	m_full.region2x (A/m)	m_full.region2y (A/m)	m_full.region2z (A/m)
0	0.6354986	0.63549846	-2.2228251e-10	0.07071085	0.07071085	0	134140.22	134140.19	-4.880779e-05	650507.25	239190.84	-0.00016833564	239190.77	650507.06	-0.00017831707
0	0.6352381	0.63523823	-4.6308856e-11	0.070357256	0.07035725	0	134085.27	134085.27	-2.2451582e-05	650693	238640.69	8.632596e-06	238640.4	650692.9	-9.495857e-05
0	0.63497454	0.6349746	-1.44072e-10	0.07000352	0.07000352	0	134029.61	134029.64	-4.2950855e-05	650882.25	238082.44	-7.121892e-05	238082.16	650882.1	-0.00017696823
0	0.634709	0.6347091	-2.4595148e-10	0.06964993	0.06964993	0	133973.55	133973.58	-5.206164e-05	651072.2	237520.69	-0.00017373101	237520.44	651072	-0.00020718233
0	0.63444257	0.6344426	-1.6156645e-10	0.06929657	0.06929657	0	133917.33	133917.34	-3.9371615e-05	651261.9	236957.97	-0.0001273308	236957.72	651261.75	-0.00016401934
0	0.6341746	0.6341747	-9.261771e-11	0.068943	0.068943	0	133860.77	133860.77	-1.7570805e-05	651451.7	236392.9	-0.00011222376	236392.62	651451.6	-0.000120856355
0	0.63390505	0.63390505	-1.2451937e-10	0.06858926	0.06858926	0	133803.86	133803.88	-1.7570805e-05	651642	235825.34	1.2948895e-05	235825.08	651641.9	-0.00018128453
0	0.63363415	0.6336342	-1.5230468e-10	0.06823568	0.06823568	0	133746.69	133746.7	-1.919773e-05	651832.25	235255.89	-5.611188e-05	235255.58	651832.06	-0.000144596
0	0.6333628	0.63336295	-1.4510108e-10	0.06788231	0.06788231	0	133689.42	133689.44	-5.30378e-05	652022.8	234685.47	-0.00014243784	234685.22	652022.6	-0.00017265194
0	0.63308924	0.63308936	-1.44072e-10	0.06752872	0.06752872	0	133631.67	133631.69	-3.286391e-05	652213.75	234111.44	-4.7479283e-05	234111.17	652213.56	-0.000120856355
0	0.6328147	0.63281476	-1.152576e-10	0.067174986	0.067174986	0	133573.72	133573.73	-2.8633902e-05	652404.3	233536.53	-9.495857e-05	233536.28	652404.2	-0.00010305162
0	0.6325379	0.63253796	-1.1628669e-10	0.066821754	0.066821754	0	133515.28	133515.3	-2.5054665e-05	652595.7	232957.6	-5.611188e-05	232957.33	652595.56	-0.00012948895
0	0.632261	0.63226104	-1.3069389e-10	0.066468164	0.066468164	0	133456.84	133456.84	-2.8959288e-05	652786.56	232379.02	-6.2586325e-05	232378.73	652786.4	-0.00011222376
0	0.6319825	0.6319825	-1.6362463e-10	0.066114426	0.06611443	0	133398.05	133398.05	-3.514161e-05	652977.8	231797.89	-7.337707e-05	231797.67	652977.56	-0.00018775898
0	0.63170105	0.6317012	-1.7597365e-10	0.06576086	0.065760866	0	133338.66	133338.67	-3.4165452e-05	653169.6	231212.12	-4.963743e-05	231211.88	653169.5	-0.00018128453
0	0.6314204	0.6314204	-1.7700275e-10	0.06540746	0.06540746	0	133279.4	133279.4	-3.1236985e-05	653361.1	230627.61	-0.00012625173	230627.38	653360.94	-0.00014675414
0	0.63113743	0.63113743	-9.0559546e-11	0.06505392	0.065053925	0	133219.67	133219.69	-1.301541e-05	653552.56	230040.08	-4.316298e-06	230039.83	653552.44	-0.00017265194
0	0.63085216	0.6308522	-8.1297774e-11	0.064700186	0.064700186	0	133159.45	133159.47	-2.4403895e-05	653744.75	229448.5	-9.495857e-05	229448.28	653744.6	-6.0428178e-05
0	0.630566	0.63056606	2.0581713e-12	0.06434661	0.06434661	0	133099.06	133099.06	-1.301541e-06	653937.1	228855.44	-1.7265193e-05	228855.16	653937.06	-3.4530385e-05
0	0.63028014	0.63028014	-1.3995566e-10	0.06399321	0.0639932	0	133038.72	133038.72	-3.156237e-05	654128.9	228263.53	-5.611188e-05	228263.3	654128.6	-0.00019423342
0	0.62999195	0.62999195	-1.4818834e-10	0.06363963	0.06363963	0	132977.88	132977.88	-3.774469e-05	654321.06	227667.75	-6.4744477e-06	227667.55	654320.9	-0.00018991713
0	0.62970084	0.62970084	-1.368684e-10	0.06328591	0.06328591	0	132916.45	132916.47	-2.603082e-05	654513.94	227067.42	-6.0428178e-05	227067.2	654513.8	-0.00015538673
0	0.6294098	0.6294098	-4.5279773e-11	0.06293265	0.06293265	0	132855.02	132855.02	-8.460017e-06	654706.4	226467.66	1.2948895e-05	226467.4	654706.06	-0.00011977728
0	0.62911665	0.62911665	-8.7472286e-11	0.06257908	0.06257908	0	132793.14	132793.14	-2.1800812e-05	654899.44	225864.19	-9.0642265e-05	225863.95	654899.2	-0.00011222376
0	0.628821	0.628821	-1.3275206e-10	0.06222535	0.06222535	0	132730.72	132730.73	-2.3427738e-05	655093.4	225256.23	-7.337707e-05	225256.05	655093.25	-5.179558e-05
0	0.6285263	0.6285262	-5.76288e-11	0.061871793	0.061871793	0	132668.52	132668.52	-9.7615575e-06	655285.3	224651.6	1.2948895e-05	224651.38	655285.2	-0.00011761913
0	0.6282287	0.6282287	-3.9105257e-11	0.06151836	0.061518364	0	132605.72	132605.72	-6.019627e-06	655478.6	224041.83	-2.1581493e-05	224041.64	655478.4	-4.3162985e-05
0	0.6279297	0.6279297	-7.2036e-11	0.061164834	0.061164834	0	132542.6	132542.6	-7.809246e-06	655672.06	223429.7	-2.3739642e-05	223429.5	655671.9	-9.495857e-05
0	0.62762773	0.6276278	-3.0460937e-10	0.060811102	0.06081111	0	132478.86	132478.86	-5.0434715e-05	655866.7	222812.38	-0.00016833564	222812.14	655866.5	-0.00021797307
0	0.62732697	0.6273269	-7.615234e-11	0.06045755	0.06045755	0	132415.36	132415.38	-2.1475427e-05	656059.2	222198.67	-7.553522e-05	222198.45	656059.06	-0.00011222376
0	0.62702346	0.6270234	-9.36468e-11	0.060104113	0.060104113	0	132351.31	132351.31	-2.0011194e-05	656252.9	221580.19	-3.8846683e-05	221579.95	656252.7	-7.769337e-05
0	0.62671816	0.62671816	-1.6774097e-10	0.05975055	0.059750557	0	132286.88	132286.88	-2.4403895e-05	656446.75	220958.94	-3.8846683e-05	220958.73	656446.5	-0.00016078212
0	0.6264104	0.6264104	-1.584792e-10	0.05939683	0.05939683	0	132221.9	132221.9	-3.0098136e-05	656641.1	220333.67	-6.4744476e-05	220333.44	656640.9	-0.00013812154
0	0.62610376	0.62610376	-1.3583931e-10	0.05904355	0.059043545	0	132157.19	132157.19	-1.4642336e-05	656834.6	219710.92	-3.2372238e-05	219710.73	656834.3	-0.00011222376
0	0.6257938	0.62579376	-1.5024651e-10	0.05868998	0.05868999	0	132091.75	132091.73	-1.4967722e-05	657029.25	219082.22	-9.495857e-05	219082.03	657029	-9.711671e-05
0	0.62548244	0.62548244	-1.6671188e-10	0.05833626	0.05833626	0	132026.03	132026	-3.6117763e-05	657223.5	218452.08	-0.00012517265	218451.9	657223.2	-0.00013812154
0	0.62516975	0.6251697	-1.8626452e-10	0.057982728	0.057982728	0	131960.02	131960.02	-4.7506248e-05	657417.6	217820.2	-6.2586325e-05	217820	657417.4	-0.00020718233
0	0.6248542	0.6248542	-1.4201383e-10	0.057629254	0.057629257	0	131893.42	131893.4	-3.3840068e-05	657613.25	217182.88	-0.00011222376	217182.66	657612.94	-0.00013434478
0	0.6245388	0.6245387	-2.675623e-11	0.057275705	0.057275705	0	131826.83	131826.83	-2.4403894e-06	657807.2	216547.22	1.9423342e-05	216547.05	657807	-3.4530385e-05
0	0.62422	0.6242199	-2.7888222e-10	0.056922022	0.056922026	0	131759.55	131759.55	-4.1974698e-05	658002.06	215906.1	-0.00015107045	215905.89	658001.8	-0.00020718233
0	0.62390137	0.62390137	-7.615234e-11	0.056568485	0.056568485	0	131692.3	131692.28	-2.9610059e-05	658196.8	215265.27	-0.000118698204	215265.1	658196.5	-9.2800416e-05
0	0.62358075	0.6235807	-2.2742794e-10	0.056215007	0.056215007	0	131624.61	131624.61	-5.9220118e-05	658391.5	214621.69	-0.00018344268	214621.5	658391.25	-0.00021581491
0	0.62325746	0.62325746	-6.894874e-11	0.05586147	0.055861473	0	131556.39	131556.39	-7.809246e-06	658586.75	213973.92	-3.8846683e-05	213973.77	658586.5	-6.906077e-05
0	0.622933	0.6229329	-1.0908308e-10	0.05550775	0.05550775	0	131487.89	131487.88	-2.6356205e-05	658782.06	213324.22	-5.8270027e-05	213324.05	658781.75	-0.00014837275
0	0.6226077	0.62260765	-1.296648e-10	0.05515444	0.05515443	0	131419.23	131419.22	-3.2213142e-05	658977.3	212673.7	-6.2586325e-05	212673.52	658977	-0.000120856355
0	0.6222799	0.6222799	-1.4613018e-10	0.05480089	0.05480089	0	131350.03	131350.02	-3.7582e-05	659172.5	212019.52	-8.200967e-05	212019.36	659172.2	-0.00016401934
0	0.6219509	0.62195086	-7.718143e-11	0.05444718	0.05444719	0	131280.61	131280.6	-1.8872344e-05	659367.9	211363.66	-1.0790746e-05	211363.52	659367.6	-9.0372494e-05
0	0.6216179	0.6216178	-9.7763145e-11	0.054093663	0.054093663	0	131210.31	131210.28	-2.1963504e-05	659564.06	210701.1	-0.0001143819	210700.98	659563.75	-8.632597e-05
0	0.6212863	0.6212862	-2.88144e-11	0.053740148	0.053740148	0	131140.33	131140.3	-1.8221574e-05	659759.3	210041.64	-7.121892e-05	210041.5	659759	-7.769337e-05
0	0.62095106	0.62095106	-1.296648e-10	0.053386614	0.05338662	0	131069.57	131069.54	-2.0824657e-05	659956	209375.72	-5.395373e-05	209375.58	659955.7	-0.00012894941
0	0.62061614	0.6206161	-1.739155e-10	0.053032953	0.053032953	0	130998.86	130998.836	-3.2213142e-05	660150.75	208712.03	-0.0001143819	208711.89	660150.44	-0.00011222376
0	0.62027776	0.62027764	5.145429e-12	0.052679427	0.052679427	0	130927.42	130927.41	-3.904623e-06	660346.5	208042.5	8.632596e-06	208042.36	660346.2	-6.0428178e-05
0	0.6199386	0.61993855	-1.6465372e-10	0.052325893	0.052325893	0	130855.85	130855.836	-2.7983133e-05	660542.3	207371.84	-8.632597e-05	207371.73	660542.06	-0.00020718233
0	0.61959624	0.6195961	-1.6671188e-10	0.051972385	0.051972385	0	130783.58	130783.555	-3.3189295e-05	660738.8	206696.05	-8.416782e-05	206695.9	660738.56	-0.00017265194
0	0.6192538	0.61925364	-1.3069389e-10	0.051618673	0.05161867	0	130711.3	130711.266	-3.400276e-05	660934.44	206020.92	-5.395373e-05	206020.78	660934.1	-0.00014675414
0	0.61890703	0.6189068	-7.615234e-11	0.05126532	0.051265318	0	130638.09	130638.05	-8.134632e-06	661131.2	205338.64	-1.2948895e-05	205338.56	661130.9	-4.586067e-05
0	0.61856145	0.61856127	-1.4510108e-10	0.0509118	0.050911807	0	130565.15	130565.125	-2.0824657e-05	661327.1	204659	-0.00010574931	204658.86	661326.75	-0.00010359116
0	0.61821246	0.6182124	-2.8711492e-10	0.050558098	0.050558098	0	130491.516	130491.48	-5.30378e-05	661523.5	203974.11	-0.00015754488	203974	661523.25	-0.00020718233
0	0.6178624	0.61786234	-7.718143e-11	0.0502046	0.0502046	0	130417.59	130417.586	-2.603082e-05	661719.7	203287.83	-0.00010143301	203287.7	661719.3	-8.632597e-05
0	0.61750966	0.6175096	-1.6259555e-10	0.049851034	0.049851034	0	130343.164	130343.12	-3.1725063e-05	661916.1	202597.5	-0.0001359634	202597.4	661915.9	-0.00014675414
0	0.6171546	0.61715454	3.4988915e-11	0.049497522	0.04949753	0	130268.2	130268.17	1.1063099e-05	662113.5	201903.17	3.2372238e-06	201903.06	662113.2	4.3162985e-05
0	0.6167993	0.6167991	-1.5642103e-10	0.04914387	0.04914387	0	130193.195	130193.164	-2.6356205e-05	662309.06	201209.97	-8.8484114e-05	201209.84	662308.75	-0.00012166566
0	0.61644185	0.6164417	-2.5109692e-10	0.04879038	0.048790377	0	130117.77	130117.734	-4.034777e-05	662505.44	200513.27	-0.00010790746	200513.17	662505.06	-0.00013812154
0	0.616081	0.6160808	-1.0702492e-10	0.048436783	0.048436783	0	130041.59	130041.54	-2.9935443e-05	662703	199810.45	-9.495857e-05	199810.38	662702.7	-0.000120856355
0	0.6157204	0.61572015	-1.1731577e-10	0.048083294	0.048083298	0	129965.46	129965.43	-1.789619e-05	662898.56	199110.05	-7.769337e-05	199109.97	662898.2	-9.2260874e-05
0	0.6153556	0.61535543	-1.4613018e-10	0.0477296	0.0477296	0	129888.47	129888.43	-3.2375832e-05	663095.5	198402.39	-0.00010359116	198402.3	663095.2	-0.00012948895
0	0.61499065	0.6149904	-1.4304291e-10	0.047376204	0.047376204	0	129811.43	129811.38	-3.2538526e-05	663292.2	197694.75	-5.0716506e-05	197694.66	663291.8	-7.769337e-05
0	0.6146236	0.61462337	-5.5570628e-11	0.047022715	0.047022715	0	129733.97	129733.92	-1.1225791e-05	663488.75	196984.36	3.6688536e-05	196984.3	663488.4	-3.776761e-05
0	0.6142539	0.6142537	-1.3892658e-10	0.046669018	0.046669018	0	129655.93	129655.875	-3.7582e-05	663685.7	196269.83	-0.000120856355	196269.75	663685.4	-0.00012948895
0	0.6138822	0.613882	-1.512756e-10	0.04631554	0.04631554	0	129577.48	129577.43	-5.07601e-05	663882.44	195552.75	-0.00013920062	195552.69	663882.06	-0.00019854972
0	0.613509	0.61350876	-1.728864e-10	0.045961913	0.045961913	0	129498.695	129498.64	-2.2451582e-05	664079.25	194833.34	-9.2800416e-05	194833.27	664078.94	-0.00010628885
0	0.61313355	0.6131333	-3.0460937e-10	0.04560843	0.04560843	0	129419.43	129419.39	-6.4588974e-05	664275.9	194111.08	-0.00022660567	194111.02	664275.5	-0.00016401934
0	0.61275554	0.61275536	-8.335594e-11	0.045254797	0.045254797	0	129339.66	129339.6	-2.3102353e-05	664472.94	193384.88	-6.36654e-05	193384.84	664472.6	-9.495857e-05
0	0.612376	0.61237586	-1.3172297e-10	0.044901326	0.04490132	0	129259.55	129259.5	-3.709392e-05	664670.56	192655.92	-0.00011654005	192655.88	664670.2	-0.00013380525
0	0.6119954	0.6119951	-6.277423e-11	0.044547666	0.044547666	0	129179.19	129179.15	-9.7615575e-06	664866.56	191926.98	-4.7479283e-05	191926.95	664866.25	-6.0428178e-05
0	0.61161155	0.6116113	-4.116343e-11	0.04419421	0.04419421	0	129098.164	129098.11	-1.1713869e-05	665063.25	191192.89	-4.4242057e-05	191192.88	665062.9	-3.4530385e-05
0	0.61122465	0.6112244	-1.8523542e-10	0.043840524	0.043840528	0	129016.51	129016.46	-4.3601623e-05	665261.56	190452.89	-0.00015107045	190452.86	665261.25	-0.000114921444
0	0.6108388	0.6108386	-1.5642103e-10	0.043487057	0.043487057	0	128935.06	128935.016	-2.4891971e-05	665457.1	189717.19	-9.711671e-05	189717.16	665456.8	-8.632597e-05
0	0.610449	0.61044884	-1.6979915e-10	0.04313362	0.04313362	0	128852.82	128852.74	-3.3840068e-05	665654	188974.64	-9.927486e-05	188974.62	665653.7	-0.00012948895
0	0.61005753	0.61005723	-1.8214817e-10	0.042779934	0.04277993	0	128770.164	128770.1	-3.2538526e-05	665850.56	188230.02	-0.00011654005	188229.97	665850.2	-0.0001462146
0	0.60966337	0.6096631	-4.6308856e-11	0.042426474	0.042426474	0	128686.97	128686.92	-4.5553934e-06	666047.5	187481.38	-1.0790746e-05	187481.36	666047.06	-3.4530385e-05
0	0.60926646	0.60926616	-9.7763145e-11	0.042072803	0.042072803	0	128603.18	128603.12	-2.603082e-05	666244.5	186728.48	-7.66143e-05	186728.48	666244.25	-6.906077e-05
0	0.60886914	0.60886884	-1.9861354e-10	0.041719344	0.041719344	0	128519.31	128519.25	-4.945856e-05	666441.3	185975.45	-0.00019207527	185975.45	666441	-0.00012517265
0	0.6084679	0.60846764	-1.728864e-10	0.041365717	0.041365713	0	128434.63	128434.56	-2.7657747e-05	666638.9	185216.22	-7.337707e-05	185216.22	666638.44	-0.00018128453
0	0.6080665	0.6080661	-6.071606e-11	0.041012257	0.041012257	0	128349.88	128349.83	-1.7570805e-05	666834.44	184458.56	-0.0001230145	184458.58	666834.06	-3.4530385e-05
0	0.6076606	0.60766023	-7.92396e-11	0.040658575	0.040658575	0	128264.21	128264.15	-1.9360423e-05	667032.4	183692.4	-4.1004834e-05	183692.45	667031.9	-6.2586325e-05
0	0.6072546	0.6072543	-2.675623e-11	0.04030513	0.040305134	0	128178.53	128178.48	-2.5217358e-05	667228	182928.53	-7.553522e-05	182928.53	667227.56	-6.0428178e-05
0	0.6068455	0.6068451	-2.1199166e-10	0.03995145	0.03995145	0	128092.164	128092.1	-4.457778e-05	667424.8	182158.88	-0.00011114468	182158.88	667424.4	-0.00019854972
0	0.6064341	0.6064338	-2.0375897e-10	0.039597984	0.039597988	0	128005.33	128005.26	-3.6443147e-05	667621.44	181386.33	-8.632597e-05	181386.36	667620.94	-0.00018775898
0	0.60602015	0.6060198	-7.1006916e-11	0.039244525	0.039244525	0	127917.95	127917.88	-1.6106571e-05	667817.8	180610.4	-3.2372238e-05	180610.44	667817.4	-0.00013812154
0	0.6056037	0.60560334	-2.2434068e-10	0.038890842	0.038890842	0	127830.055	127829.97	-2.5542742e-05	668015.3	179829.88	-0.00011654005	179829.9	668014.8	-0.00017265194
0	0.6051862	0.6051859	-6.586148e-11	0.038537376	0.03853738	0	127741.93	127741.84	-1.1876562e-05	668210.94	179049.73	1.0790746e-05	179049.8	668210.5	-4.963743e-05
0	0.60476476	0.6047644	-5.968697e-11	0.038183715	0.038183715	0	127652.98	127652.9	-2.7657748e-06	668408.25	178262.36	-1.0790746e-05	178262.42	668407.8	-4.3162985e-05
0	0.6043421	0.6043418	-2.2485523e-10	0.037830252	0.037830252	0	127563.79	127563.7	-4.522855e-05	668604.4	177474.61	-0.00012948895	177474.69	668604	-0.00015538673
0	0.6039169	0.6039166	-1.3944111e-10	0.037476577	0.037476577	0	127474.01	127473.94	-2.2451582e-05	668800.7	176682.89	-6.0428178e-05	176682.98	668800.3	-5.719095e-05
0	0.60349053	0.6034901	-1.6825552e-10	0.03712317	0.03712317	0	127384	127383.914	-3.139968e-05	668995.75	175890.9	-0.00011654005	175890.98	668995.25	-7.769337e-05
0	0.60305953	0.6030591	-2.6087324e-10	0.0367695	0.0367695	0	127293.03	127292.945	-5.401395e-05	669193.1	175090.17	-0.00013272617	175090.27	669192.6	-0.00019854972
0	0.60262835	0.6026279	-1.4973198e-10	0.036416046	0.036416043	0	127202.01	127201.93	-2.6356205e-05	669388	174291.55	-7.121892e-05	174291.64	669387.5	-0.000100084166
0	0.6021934	0.60219306	-1.4201383e-10	0.03606238	0.03606237	0	127110.23	127110.13	-2.8633902e-05	669583.8	173486.9	-0.000120856355	173487.02	669583.4	-6.906077e-05
0	0.60175645	0.60175604	-1.872936e-10	0.0357089	0.0357089	0	127017.98	127017.89	-3.0586216e-05	669779.75	172679.17	-0.00010574931	172679.28	669779.25	-0.00013812154
0	0.60131717	0.60131675	-7.718143e-11	0.035355426	0.035355426	0	126925.25	126925.17	-1.05750205e-05	669975.3	171868.61	-5.179558e-05	171868.72	669974.94	-3.938622e-05
0	0.60087407	0.6008736	-1.8420634e-10	0.03500176	0.03500176	0	126831.72	126831.64	-2.4566587e-05	670172.2	171051.3	-0.00012517265	171051.42	670171.8	-0.00013812154
0	0.60043097	0.6004305	-2.7991132e-10	0.034648284	0.034648284	0	126738.19	126738.1	-5.9870887e-05	670366.5	170236.72	-0.00024279178	170236.86	670366.06	-0.00021581491
0	0.5999829	0.59998244	-1.3944111e-10	0.03429463	0.034294635	0	126643.625	126643.54	-3.0586216e-05	670563.2	169412.84	-9.927486e-05	169412.95	670562.6	-9.711671e-05
0	0.5995345	0.5995341	-1.1011217e-10	0.033941153	0.033941153	0	126548.98	126548.88	-3.5466994e-05	670757.5	168590.7	-6.690263e-05	168590.83	670757	-8.632597e-05
0	0.59908277	0.59908223	5.04252e-11	0.033587493	0.033587493	0	126453.6	126453.53	1.5293108e-05	670952.4	167763.31	5.179558e-05	167763.47	670951.9	1.7265193e-05
0	0.5986276	0.5986272	-5.76288e-11	0.033234082	0.033234082	0	126357.55	126357.445	-1.3991566e-05	671147.56	166930.97	-6.4744477e-06	166931.11	671147.06	-3.4530385e-05
0	0.59817106	0.5981706	-8.1812314e-11	0.032880433	0.032880433	0	126261.18	126261.06	-3.2050448e-05	671342.44	166096.81	-0.00013812154	166096.98	671342.06	-5.179558e-05
0	0.5977113	0.5977109	-2.5727143e-11	0.03252696	0.03252696	0	126164.16	126164.05	-2.7983133e-05	671537.4	165258.33	-8.632597e-05	165258.5	671536.94	-5.179558e-05
0	0.5972488	0.5972484	-2.2434068e-10	0.032173306	0.032173306	0	126066.516	126066.41	-5.645434e-05	671732.2	164415.95	-0.00018344268	164416.12	671731.75	-0.00017885662
0	0.5967834	0.59678286	-1.2503391e-10	0.031819817	0.031819817	0	125968.27	125968.164	-2.1475427e-05	671927.6	163568.92	-3.6688536e-05	163569.1	671927.2	-0.00014675414
0	0.5963171	0.5963166	-1.7082823e-10	0.031466324	0.031466324	0	125869.84	125869.74	-3.335199e-05	672120.7	162723.08	-0.0001532286	162723.25	672120.25	-0.000120856355
0	0.5958461	0.5958456	-2.3668972e-10	0.031112675	0.031112675	0	125770.445	125770.31	-1.8221574e-05	672315.25	161869.06	-6.0428178e-05	161869.28	672314.75	-0.000120586585
0	0.59537417	0.59537363	-2.5315508e-10	0.03075918	0.030759182	0	125670.805	125670.69	-5.271241e-05	672509.1	161014.38	-0.00015754488	161014.6	672508.6	-0.00022444752
0	0.5948985	0.594898	-1.8009e-10	0.030405555	0.030405555	0	125570.41	125570.29	-3.6443147e-05	672702.9	160154.77	-9.387949e-05	160154.98	672702.44	-0.00010359116
0	0.5944194	0.5944189	-9.0045e-11	0.030052057	0.030052058	0	125469.3	125469.18	-1.0412328e-05	672897.8	159289.14	-1.9423342e-05	159289.38	672897.25	-1.5107044e-05
0	0.59393877	0.5939383	-4.116343e-11	0.029698415	0.029698415	0	125367.85	125367.734	-2.7657748e-06	673090.3	158423.8	-4.316298e-06	158424.05	673089.8	-6.0428178e-05
0	0.5934545	0.59345394	-1.2451937e-10	0.029344995	0.029344995	0	125265.63	125265.484	-4.034777e-05	673284.7	157551.34	-8.740504e-05	157551.6	673284.2	-0.00010359116
0	0.5929694	0.5929689	-1.548774e-10	0.02899136	0.028991364	0	125163.22	125163.11	-2.65189e-05	673476.75	156680.25	-7.985152e-05	156680.5	673476.1	-0.0001540379
0	0.5924788	0.5924782	-5.351246e-11	0.028637853	0.028637853	0	125059.664	125059.53	-1.919773e-05	673670.94	155799.12	-3.0214089e-05	155799.38	673670.4	-9.495857e-05
0	0.5919878	0.5919872	-2.4800967e-10	0.028284242	0.028284242	0	124956.02	124955.91	-4.2950855e-05	673862.56	154920.11	-0.00017481008	154920.36	673862	-0.00020718233
0	0.59149176	0.59149116	-2.16108e-11	0.027930735	0.027930735	0	124851.33	124851.2	-1.5293108e-05	674056.1	154032.02	-7.337707e-05	154032.28	674055.6	-3.992576e-05
0	0.59099483	0.5909943	-4.9396116e-11	0.027577216	0.027577216	0	124746.45	124746.33	-1.4805029e-05	674247.44	153145.22	-4.3162985e-05	153145.5	674246.9	-6.0428178e-05
0	0.5904939	0.5904932	-2.9328942e-10	0.02722359	0.02722359	0	124640.695	124640.57	-5.3363183e-05	674439.75	152251.34	-0.00019423342	152251.66	674439.2	-0.00018991713
0	0.5899901	0.5899895	-8.335594e-11	0.026870074	0.026870074	0	124534.36	124534.23	-1.8465613e-05	674631.56	151354.31	-0.00011222376	151354.61	674630.94	-3.5069923e-05
0	0.5894836	0.58948296	-2.6241686e-11	0.026516477	0.026516473	0	124427.45	124427.31	5.0434714e-06	674823.2	150453.5	1.9423342e-05	150453.81	674822.6	0
0	0.58897305	0.5889725	-8.438503e-11	0.026162945	0.026162947	0	124319.69	124319.55	-2.627486e-05	675015.1	149546.86	-5.8270027e-05	149547.17	675014.56	-0.00011222376
0	0.5884607	0.58846	-1.0033586e-10	0.025809335	0.025809336	0	124211.53	124211.39	-2.6600244e-05	675207	148637.7	-9.2800416e-05	148638.02	675206.44	-8.8484114e-05
0	0.58794516	0.58794457	-1.1217034e-10	0.025455903	0.0254559	0	124102.72	124102.57	-3.0586216e-05	675397.94	147725	-0.00011006561	147725.31	675397.4	-9.495857e-05
0	0.5874269	0.58742625	-9.570497e-11	0.025102299	0.0251023	0	123993.305	123993.17	-1.7489458e-05	675587.8	146809.53	-4.208391e-05	146809.86	675587.2	-0.00010359116
0	0.5869057	0.586905	-1.3995566e-10	0.024748765	0.024748761	0	123883.3	123883.16	-2.2614275e-05	675778.2	145889.36	-0.00010359116	145889.72	675777.6	-0.000115191215
0	0.58638114	0.5863804	-2.1404983e-10	0.024395188	0.02439519	0	123772.57	123772.43	-4.083585e-05	675968.2	144964.95	-0.0001532286	144965.33	675967.56	-0.00016401934
0	0.58585215	0.5858515	-2.1199166e-10	0.024041647	0.024041647	0	123660.914	123660.766	-3.8151422e-05	676159.25	144033.34	-0.00013380525	144033.72	676158.7	-0.00016401934
0	0.5853224	0.58532166	-9.261771e-11	0.023688102	0.023688102	0	123549.09	123548.945	-1.7489458e-05	676347.75	143103.27	-0.000120856355	143103.66	676347.1	-3.6958303e-05
0	0.58478695	0.5847862	-1.5796466e-10	0.023334509	0.023334509	0	123436.08	123435.93	-3.1481024e-05	676538.25	142163.05	-9.495857e-05	142163.44	676537.7	-8.632597e-05
0	0.5842507	0.58425	-1.2297574e-10	0.022980956	0.022980956	0	123322.875	123322.73	-2.9935443e-05	676726.3	141224.19	-0.0001273308	141224.58	676725.75	-5.179558e-05
0	0.5837104	0.5837096	-1.7700275e-10	0.022627398	0.022627398	0	123208.836	123208.69	-5.4176646e-05	676914.75	140279.3	-0.0001359634	140279.72	676914.2	-0.00020151718
0	0.5831654	0.5831647	-1.5384831e-10	0.022273837	0.022273837	0	123093.81	123093.65	-3.156237e-05	677104.44	139326.83	-0.00012948895	139327.23	677103.75	-3.4530385e-05
0	0.58261925	0.58261853	-8.387049e-11	0.021920262	0.021920262	0	122978.54	122978.38	-3.2701217e-05	677291.6	138374.94	-0.00010359116	138375.38	677291.06	-4.3162985e-05
0	0.5820686	0.58206785	-1.9243902e-10	0.02156681	0.02156681	0	122862.3	122862.13	-3.725661e-05	677479.44	137416.17	-0.00016401934	137416.62	677478.8	-9.2800416e-05
0	0.58151543	0.58151466	-1.3583931e-10	0.021213237	0.021213237	0	122745.53	122745.36	-3.4165452e-05	677666.56	136454.5	-0.0001273308	136454.94	677666	-8.632597e-05
0	0.58095825	0.5809574	-1.08054e-10	0.020859672	0.020859672	0	122627.94	122627.766	-2.0824657e-05	677854	135487.1	-4.4242057e-05	135487.56	677853.44	-6.0428178e-05
0	0.5803983	0.5803976	-1.4613018e-10	0.020506129	0.020506129	0	122509.734	122509.57	-4.034777e-05	678040.44	134516.78	-0.00010143301	134517.23	678039.75	-0.00016401934
0	0.5798336	0.57983285	-5.04252e-11	0.020152565	0.020152565	0	122390.54	122390.37	-7.646554e-06	678227.2	133539.44	-1.7265193e-05	133539.92	678226.6	-6.906077e-05
0	0.5792663	0.5792655	-1.5230468e-10	0.019798992	0.019798994	0	122270.79	122270.61	-3.774469e-05	678413.3	132559.1	-0.00014675414	132559.58	678412.56	-0.00015538673
0	0.5786962	0.57869536	-7.255054e-11	0.019445421	0.019445421	0	122150.445	122150.28	-2.8308517e-05	678599	131575.2	-5.395373e-05	131575.72	678598.3	-0.00015808443
0	0.5781223	0.5781215	-1.6465372e-10	0.019091858	0.019091858	0	122029.305	122029.13	-2.9935443e-05	678784.1	130586.57	-0.00013812154	130587.09	678783.5	-6.906077e-05
0	0.57754356	0.5775427	-1.9501174e-10	0.018738288	0.018738288	0	121907.15	121906.98	-2.65189e-05	678970	129590.516	-0.00010143301	129591.03	678969.4	-8.632597e-05
0	0.57696337	0.5769626	-8.335594e-11	0.01838475	0.01838475	0	121784.7	121784.51	-2.9935443e-05	679153.4	128594.85	-0.00015107045	128595.375	679152.75	-5.0716506e-05
0	0.5763782	0.5763774	-1.0162222e-10	0.018031185	0.018031185	0	121661.19	121661.01	-1.8058881e-05	679337.8	127591.25	-8.200967e-05	127591.79	679337.2	-6.0428178e-05
0	0.57578987	0.57578903	-2.0453078e-10	0.017677713	0.017677713	0	121537	121536.8	-3.5466994e-05	679521.56	126583.72	-9.495857e-05	126584.28	679520.9	-0.000120856355
0	0.5751979	0.57519704	-2.7425134e-10	0.017324142	0.017324142	0	121412.05	121411.85	-4.352028e-05	679704.56	125571.95	-0.00015107045	125572.52	679703.9	-0.00014432623
0	0.5746023	0.5746014	-1.7957545e-10	0.016970577	0.016970577	0	121286.3	121286.125	-4.6855475e-05	679887.4	124555.23	-0.00015538673	124555.82	679886.6	-0.00015538673
0	0.57400215	0.57400125	-1.2091757e-10	0.016617041	0.016617041	0	121159.625	121159.46	-3.2538526e-05	680070.1	123532.23	-9.387949e-05	123532.836	680069.44	-9.495857e-05
0	0.57339853	0.5733976	-1.836918e-10	0.016263481	0.01626348	0	121032.22	121032.02	-3.083025e-05	680252.9	122504.41	-0.00015970304	122505.016	680252.2	-3.2372238e-05
0	0.57279235	0.5727914	-2.2794248e-10	0.015909908	0.015909908	0	120904.28	120904.08	-4.3601623e-05	680433.44	121475.25	-0.00010790746	121475.88	680432.75	-0.00018128453
0	0.57218117	0.5721803	-1.62081e-10	0.015556336	0.015556336	0	120775.27	120775.06	-4.083585e-05	680614.6	120438.4	-0.0001505309	120439.03	680613.9	-0.00010359116
0	0.57156694	0.571566	-1.818909e-10	0.015202776	0.015202777	0	120645.625	120645.42	-2.2207543e-05	680795	119398.055	-9.2800416e-05	119398.695	680794.3	-0.00015268906
0	0.5709482	0.5709473	-1.4715926e-10	0.014849207	0.014849207	0	120515	120514.8	-2.086533e-05	680975.2	118351.625	-0.000120856355	118352.29	680974.44	-6.0428178e-05
0	0.57032573	0.5703247	-9.519043e-11	0.014495679	0.01449568	0	120383.625	120383.42	-2.5868128e-05	681154.75	117300.52	-5.557234e-05	117301.19	681154.2	-5.179558e-05
0	0.5696992	0.56969833	-1.2349029e-10	0.014142121	0.014142121	0	120251.39	120251.17	-4.5147204e-05	681333.75	116244.5	-0.000120856355	116245.17	681333.06	-0.00016024258
0	0.569069	0.569068	-2.6138777e-10	0.013788608	0.013788608	0	120118.36	120118.14	-6.670398e-05	681512.3	115183.57	-0.00018128453	115184.26	681511.6	-0.00018991713
0	0.5684345	0.5684335	-1.0908308e-10	0.013435037	0.013435037	0	119984.414	119984.21	-1.9523115e-05	681690.25	114117.4	-7.877244e-05	114118.1	681689.5	-9.495857e-05
0	0.5677957	0.5677947	-1.4715926e-10	0.013081473	0.013081473	0	119849.586	119849.37	-3.335199e-05	681868	113045.25	-0.00011222376	113045.96	681867.3	-3.7228074e-05
0	0.567153	0.567152	-1.2297574e-10	0.01272795	0.012727952	0	119713.914	119713.71	-2.8755921e-05	682044.94	111968.45	-0.00011006561	111969.17	682044.4	-5.179558e-05
0	0.5665058	0.5665047	-1.764882e-10	0.012374381	0.0123743825	0	119577.32	119577.086	-3.514161e-05	682221.56	110885.78	-0.00013866108	110886.52	682220.9	-0.00013812154
0	0.5658552	0.5658542	-1.5642103e-10	0.012020824	0.012020824	0	119439.97	119439.76	-3.6280457e-05	682397.1	109799.25	-0.00016617749	109800.01	682396.5	-9.54981e-05
0	0.5652	0.5651989	-1.11141256e-10	0.011667254	0.011667254	0	119301.68	119301.47	-2.8633902e-05	682572.5	108706.664	-8.632597e-05	108707.43	682571.8	-8.632597e-05
0	0.5645404	0.5645394	-1.3841203e-10	0.011313697	0.011313699	0	119162.47	119162.25	-3.3840068e-05	682747.1	107608.67	-0.00013488432	107609.45	682746.5	-0.00010359116
0	0.5638765	0.56387544	-1.4664471e-10	0.010960132	0.010960132	0	119022.32	119022.086	-3.180641e-05	682921.4	106504.89	-4.7479283e-05	106505.69	682920.7	-0.00010736792
0	0.56320786	0.5632068	-8.708638e-11	0.010606619	0.010606619	0	118881.19	118880.984	-1.9035038e-05	683094.94	105395.35	-0.0001532286	105396.14	683094.2	-3.4530385e-05
0	0.56253576	0.5625347	-2.7592362e-10	0.010253064	0.010253064	0	118739.33	118739.11	-5.7267804e-05	683267.7	104281.67	-0.00019908926	104282.484	683266.9	-0.00022444752
0	0.56185865	0.56185746	-6.779102e-11	0.009899496	0.009899496	0	118596.4	118596.164	-1.9279076e-05	683439.8	103161.42	-0.00010359116	103162.24	683439	-2.778617e-05
0	0.56117725	0.5611761	-1.1191307e-11	0.009545929	0.009545929	0	118452.58	118452.33	-5.0841445e-06	683611.3	102035.99	-2.589779e-05	102036.83	683610.5	-2.589779e-05
0	0.5604911	0.5604899	-1.4291428e-10	0.009192375	0.009192375	0	118307.74	118307.49	-3.131833e-05	683782.4	100904.29	-0.00015808443	100905.13	683781.56	-6.0428178e-05
0	0.55980074	0.5597996	-8.4899573e-11	0.008838857	0.008838857	0	118162.04	118161.8	-1.6431955e-05	683952.25	99767.95	-6.906077e-05	99768.83	683951.5	-6.906077e-05
0	0.5591052	0.5591041	-1.8652178e-10	0.008485288	0.008485288	0	118015.21	118014.98	-4.0144405e-05	684121.8	98624.68	-0.00014243784	98625.56	684121.1	-8.632597e-05
0	0.55840546	0.5584043	-1.2310437e-10	0.00813174	0.00813174	0	117867.5	117867.25	-4.2747488e-05	684290.6	97476.03	-0.00013434478	97476.92	684289.94	-8.632597e-05
0	0.5577006	0.5576994	-9.673406e-11	0.0077781687	0.007778168	0	117718.73	117718.47	-1.9726482e-05	684458.94	96320.97	-0.00010359116	96321.875	684458.25	-5.9349104e-06
0	0.55699104	0.5569899	-3.5760728e-11	0.0074246037	0.0074246037	0	117568.97	117568.72	-6.019627e-06	684626.4	95160.22	-9.495857e-05	95161.125	684625.7	3.4530385e-05