# t (s)	mx ()	my ()	mz ()	B_extx (T)	B_exty (T)	B_extz (T)	m_fullx (A/m)	m_fully (A/m)	m_fullz (A/m)	m_full.region1x (A/m)	m_full.region1y (A/m)	m_full.region1z (A/m)	m_full.region2x (A/m)	m_full.region2y (A/m)	m_full.region2z (A/m)
0	0.65742725	0.65742433	-9.1782837e-10	0.07071067	0.07071067	0	158158.2	158157.48	-0.00021986607	617814.7	302581.06	-0.0006708358	302583.4	617812.9	-0.00062351546
0	0.6573491	0.6573486	-4.7561605e-10	0.07056918	0.07056918	0	158139.4	158139.28	-0.00011543367	617884.25	302404.12	-0.00032289192	302404.34	617883.94	-0.00034144893
0	0.65726817	0.657268	-3.630167e-10	0.07042789	0.07042789	0	158119.92	158119.89	-8.896684e-05	617960.25	302215.22	-0.00027835512	302215.12	617959.94	-0.00022639548
0	0.6571852	0.65718514	-2.8205138e-10	0.070286386	0.070286386	0	158099.98	158099.95	-7.015306e-05	618037.44	302022	-0.00012433194	302021.88	618037.1	-0.0002820665
0	0.6571042	0.6571041	-3.0373062e-10	0.07014502	0.07014502	0	158080.48	158080.45	-7.063138e-05	618113.56	301832.3	-0.00020041567	301832.22	618113.3	-0.00023752969
0	0.657022	0.6570218	-3.1633998e-10	0.07000352	0.07000352	0	158060.7	158060.69	-7.5015945e-05	618190.44	301640.38	-0.00022453979	301640.25	618190.25	-0.00017814727
0	0.6569393	0.6569392	-1.637004e-10	0.06986222	0.069862224	0	158040.84	158040.81	-4.2251275e-05	618267.1	301448.1	-8.350653e-05	301447.9	618266.9	-0.00015959026
0	0.65685683	0.65685683	-6.8665684e-10	0.069720745	0.069720745	0	158021	158020.97	-0.00016533802	618344	301255.66	-0.00048433788	301255.56	618343.7	-0.00049732777
0	0.65677464	0.6567745	-3.285069e-10	0.06957926	0.06957926	0	158001.2	158001.19	-8.0357146e-05	618420.75	301063.84	-0.00019299287	301063.72	618420.5	-0.0002597981
0	0.65669096	0.65669084	-3.0660643e-10	0.06943794	0.06943794	0	157981.06	157981.05	-7.174745e-05	618497.9	300869.5	-0.00020134353	300869.38	618497.6	-0.00021897268
0	0.6566088	0.6566087	-2.5174468e-10	0.0692964	0.0692964	0	157961.31	157961.3	-6.122449e-05	618574.44	300678	-0.00010577494	300677.9	618574.1	-0.0002523753
0	0.6565257	0.6565255	-5.4729027e-10	0.0691551	0.0691551	0	157941.33	157941.28	-0.00013647959	618651.3	300484.72	-0.00035258313	300484.6	618651	-0.00043052257
0	0.6564414	0.6564413	-1.8781303e-10	0.0690136	0.0690136	0	157921.02	157920.98	-4.336735e-05	618728.6	300289.25	-0.00014845606	300289.16	618728.44	-0.000100207835
0	0.65635836	0.65635824	-2.0927106e-10	0.068872124	0.068872124	0	157901.08	157901.05	-5.0382652e-05	618805.9	300096	-0.00027835512	300095.9	618805.56	-2.597981e-05
0	0.6562744	0.65627426	1.4047265e-10	0.06873082	0.06873082	0	157880.86	157880.84	3.5714285e-05	618882.56	299901.66	2.8763361e-05	299901.56	618882.3	0.00019299287
0	0.6561904	0.65619034	-1.4887888e-10	0.06858932	0.06858932	0	157860.67	157860.64	-3.4438777e-05	618959.6	299707.1	-9.278504e-06	299707	618959.4	-0.00018928148
0	0.65610594	0.65610576	-6.331224e-10	0.068447955	0.068447955	0	157840.33	157840.33	-0.00014859694	619037.25	299511.16	-0.00041938835	299511.06	619036.94	-0.00046021378
0	0.65602225	0.6560221	-3.9951747e-10	0.06830648	0.06830648	0	157820.22	157820.17	-9.757653e-05	619114.7	299316.66	-0.0003669648	299316.56	619114.4	-0.00018185868
0	0.6559379	0.65593773	-2.1679243e-11	0.06816515	0.06816515	0	157799.9	157799.86	-4.145408e-06	619191.75	299121.3	3.9897564e-05	299121.22	619191.5	-5.195962e-05
0	0.65585274	0.6558527	-2.5395686e-10	0.068023674	0.068023674	0	157779.45	157779.4	-5.6441328e-05	619269.06	298924.9	-0.00012665158	298924.8	619268.75	-0.00021340558
0	0.65576726	0.65576714	-6.4064376e-10	0.06788219	0.06788219	0	157758.86	157758.83	-0.00015497449	619347	298727.2	-0.0004221719	298727.1	619346.75	-0.00047505938
0	0.6556829	0.65568286	-4.680947e-10	0.06774088	0.06774088	0	157738.58	157738.55	-0.000107780616	619424.44	298531.75	-0.00021665306	298531.7	619424.2	-0.00040825416
0	0.65559715	0.655597	-1.8360992e-11	0.067599334	0.067599334	0	157717.92	157717.89	-6.0586735e-06	619502.1	298333.88	4.592859e-05	298333.75	619501.9	-0.00010763064
0	0.6555122	0.65551203	-8.096534e-11	0.06745803	0.06745803	0	157697.5	157697.47	-1.825574e-05	619579.6	298137.5	-6.309382e-05	298137.4	619579.4	-4.0825416e-05
0	0.6554263	0.65542626	-5.6631494e-10	0.06731653	0.06731653	0	157676.84	157676.81	-0.000136081	619656.94	297940.06	-0.0004407289	297939.97	619656.6	-0.00038227436
0	0.65534	0.65533984	1.3494222e-11	0.06717506	0.06717506	0	157656.08	157656.05	0	619734.94	297741.12	3.7114014e-06	297741	619734.6	-4.6392518e-07
0	0.6552549	0.6552548	-6.196282e-10	0.06703376	0.06703376	0	157635.62	157635.58	-0.00014859694	619812.06	297544.88	-0.0004583581	297544.75	619811.8	-0.0004639252
0	0.6551682	0.655168	-5.176472e-11	0.066892266	0.066892266	0	157614.73	157614.7	-7.2544644e-06	619890.44	297345.1	4.360897e-05	297345.03	619890.1	-0.000100207835
0	0.65508133	0.6550813	-3.5261952e-10	0.066750884	0.066750884	0	157593.83	157593.81	-8.418367e-05	619968.5	297145.3	-0.0002672209	297145.22	619968.25	-0.00023752969
0	0.6549952	0.6549951	-3.1368538e-10	0.06660941	0.06660941	0	157573.12	157573.1	-7.270408e-05	620046.6	296946.8	-0.00022778726	296946.7	620046.25	-0.00017814727
0	0.654908	0.65490776	-8.5832105e-11	0.06646809	0.06646809	0	157552.12	157552.08	-2.0408163e-05	620124.3	296746.8	-2.3196259e-05	296746.7	620124.06	-8.9073634e-05
0	0.65482116	0.6548211	-2.9797897e-10	0.06632662	0.06632662	0	157531.27	157531.23	-7.03125e-05	620202.6	296547.12	-0.0001252598	296547.03	620202.3	-0.00027510762
0	0.6547331	0.654733	-4.0150844e-10	0.06618514	0.06618514	0	157510.1	157510.06	-9.821429e-05	620281.1	296345.38	-0.00028995323	296345.28	620280.8	-0.0003006235
0	0.6546466	0.6546464	-2.8138772e-10	0.066043824	0.066043824	0	157489.28	157489.23	-6.8239795e-05	620359	296146.28	-0.00019206502	296146.2	620358.75	-0.00021526129
0	0.65455884	0.6545587	-3.3094028e-10	0.06590227	0.06590227	0	157468.16	157468.12	-7.8125e-05	620437.3	295945.06	-0.00014613643	295944.97	620437.1	-0.00031825269
0	0.6544704	0.65447026	-4.4907e-11	0.06576097	0.06576097	0	157446.86	157446.84	-8.928571e-06	620515.6	295743	1.8557008e-05	295742.88	620515.3	-5.195962e-05
0	0.6543831	0.654383	-3.616894e-10	0.065619476	0.065619476	0	157425.89	157425.86	-8.2589286e-05	620593.8	295542.62	-0.00020412708	295542.53	620593.5	-0.0002894893
0	0.6542949	0.6542948	-2.3559585e-10	0.06547816	0.06547816	0	157404.66	157404.62	-5.4209184e-05	620672.2	295340.78	-7.5619806e-05	295340.66	620671.9	-0.0002412411
0	0.65420645	0.6542063	-1.9113128e-10	0.0653367	0.0653367	0	157383.38	157383.34	-4.304847e-05	620750.6	295138.5	-8.2578685e-05	295138.4	620750.3	-0.00016330167
0	0.6541169	0.6541168	1.809553e-10	0.06519521	0.06519521	0	157361.86	157361.83	3.890306e-05	620829.2	294934.62	0.00021294165	294934.5	620828.94	5.9382422e-05
0	0.6540291	0.65402895	-1.5020618e-10	0.0650539	0.0650539	0	157340.72	157340.69	-3.4438777e-05	620907.5	294733.34	-0.0001271155	294733.22	620907.2	-0.00010763064
0	0.65393925	0.6539391	-2.8736058e-10	0.06491235	0.06491236	0	157319.11	157319.06	-6.855867e-05	620986.2	294528.88	-0.00023474614	294528.8	620985.94	-0.00014103325
0	0.6538506	0.6538505	-1.7564611e-10	0.06477103	0.06477103	0	157297.8	157297.77	-4.0816325e-05	621064.75	294326.28	-0.00019670428	294326.2	621064.5	-8.536223e-05
0	0.6537613	0.65376115	-3.574863e-10	0.06462956	0.06462956	0	157276.28	157276.25	-8.30676e-05	621143.44	294122.4	-0.0002672209	294122.34	621143.2	-0.0002412411
0	0.65367067	0.6536705	-8.738062e-10	0.06448809	0.06448809	0	157254.48	157254.45	-0.0002138074	621222.9	293916.2	-0.00067361933	293916.1	621222.56	-0.000619804
0	0.6535819	0.6535817	-4.2163914e-10	0.06434676	0.06434675	0	157233.12	157233.06	-0.000100765305	621301.25	293713.47	-0.0002505196	293713.38	621300.94	-0.00031175773
0	0.653492	0.6534918	-3.840323e-10	0.06420529	0.06420529	0	157211.48	157211.45	-8.7691325e-05	621379.94	293508.94	-0.00026768484	293508.84	621379.6	-0.00026350952
0	0.65340126	0.6534011	-9.556564e-11	0.06406391	0.06406391	0	157189.69	157189.64	-2.080676e-05	621459.1	293302.7	-0.00010299139	293302.6	621458.94	-1.8557008e-05
0	0.65331155	0.6533114	-1.9201615e-10	0.06392241	0.06392241	0	157168.1	157168.06	-4.575893e-05	621537.44	293098.84	-0.0001456725	293098.75	621537.1	-0.00014103325
0	0.6532203	0.6532201	-5.9617916e-10	0.063781105	0.063781105	0	157146.12	157146.1	-0.0001418208	621616.7	292891.75	-0.00041799658	292891.66	621616.4	-0.00042681117
0	0.6531288	0.65312856	2.0130725e-10	0.06363964	0.06363964	0	157124.12	157124.08	4.6875e-05	621695.8	292684.56	5.9382422e-05	292684.47	621695.5	0.00022268409
0	0.653038	0.65303785	-6.3710426e-11	0.06349814	0.06349814	0	157102.31	157102.27	-2.0408163e-05	621774.8	292478.56	-0.0001252598	292478.47	621774.5	4.0825416e-05
0	0.65294635	0.6529461	-1.7874315e-10	0.06335683	0.06335683	0	157080.2	157080.19	-4.432398e-05	621854.5	292270.28	-0.00019948783	292270.22	621854.2	-5.9382422e-05
0	0.6528558	0.65285575	-5.3534458e-11	0.06321529	0.0632153	0	157058.47	157058.42	-1.434949e-05	621933.3	292064.94	1.1134204e-05	292064.88	621933	-8.536223e-05
0	0.65276414	0.65276396	-2.229865e-10	0.06307396	0.06307396	0	157036.4	157036.36	-5.6401466e-05	622012.9	291857.03	-0.0001623738	291856.94	622012.5	-0.00015587886
0	0.652671	0.6526708	-3.590348e-10	0.06293249	0.06293249	0	157014	157013.95	-9.008291e-05	622092.6	291646.8	-0.00019577642	291646.72	622092.4	-0.00032660333
0	0.6525789	0.6525787	-6.5391675e-10	0.06279103	0.06279103	0	156991.84	156991.78	-0.00015529337	622172	291438.5	-0.00041196556	291438.38	622171.7	-0.0005158848
0	0.6524871	0.652487	-1.1680246e-10	0.06264969	0.06264969	0	156969.77	156969.73	-2.6666135e-05	622251.7	291230.47	-1.2989905e-05	291230.4	622251.3	-0.00015587886
0	0.65239507	0.65239483	-3.181097e-10	0.062508225	0.062508225	0	156947.61	156947.58	-7.9081634e-05	622330.75	291022.4	-0.00026072594	291022.3	622330.4	-0.00017443587
0	0.6523024	0.65230227	-4.0040235e-11	0.06236684	0.06236684	0	156925.31	156925.27	-8.928571e-06	622410.1	290813.28	-3.4330464e-05	290813.22	622409.8	-2.597981e-05
0	0.6522092	0.6522091	6.2604345e-11	0.062225346	0.062225346	0	156902.9	156902.86	1.5306123e-05	622489.9	290603.06	9.835214e-05	290602.97	622489.56	7.422803e-06
0	0.6521163	0.6521161	-3.1855213e-10	0.062084038	0.062084038	0	156880.55	156880.52	-7.940051e-05	622569.3	290393.56	-0.00024912783	290393.5	622569	-0.00023010689
0	0.6520221	0.65202194	-1.6635501e-10	0.061942577	0.061942577	0	156857.88	156857.84	-3.5993304e-05	622649.2	290181.97	-5.7526722e-05	290181.84	622648.8	-0.00015587886
0	0.6519286	0.6519284	-1.900252e-10	0.06180108	0.061801083	0	156835.4	156835.36	-3.8584185e-05	622728.94	289971.22	-7.237233e-05	289971.16	622728.6	-0.00012989905
0	0.65183574	0.65183556	-1.464455e-10	0.06165977	0.061659772	0	156813.08	156813.05	-3.1887754e-05	622808.4	289761.88	-5.7526722e-05	289761.78	622808	-0.000115053444
0	0.65174115	0.65174097	-1.358271e-10	0.061518237	0.061518237	0	156790.31	156790.27	-3.284439e-05	622888.75	289549	-8.2578685e-05	289548.9	622888.4	-0.00010763064
0	0.65164787	0.65164757	-3.5461048e-10	0.061376892	0.061376892	0	156767.84	156767.8	-8.67347e-05	622967.8	289339.16	-0.00030619063	289339.06	622967.5	-0.00018928148
0	0.65155244	0.6515522	-1.6635501e-10	0.06123543	0.06123543	0	156744.89	156744.86	-4.0816325e-05	623048.7	289124.78	-0.00012479587	289124.7	623048.3	-0.00012618765
0	0.651457	0.65145683	-2.7762703e-10	0.061093967	0.061093967	0	156721.95	156721.92	-6.983418e-05	623128.75	288911.16	-0.00021062203	288911.06	623128.5	-0.00017072447
0	0.65136266	0.65136254	-1.8759182e-10	0.060952656	0.060952656	0	156699.27	156699.2	-4.9984057e-05	623209	288698.84	-7.0516624e-05	288698.78	623208.6	-0.00018185868
0	0.65126693	0.65126675	-1.9245859e-10	0.060811166	0.060811166	0	156676.22	156676.17	-4.4642857e-05	623289.1	288484.78	-0.0001401054	288484.66	623288.75	-0.00015959026
0	0.6511722	0.6511721	-3.2076432e-11	0.060669772	0.060669776	0	156653.44	156653.38	-6.0586735e-06	623369.2	288271.97	3.0155137e-05	288271.88	623368.9	-7.0516624e-05
0	0.6510777	0.65107745	3.5394682e-12	0.060528316	0.060528316	0	156630.69	156630.64	-1.2755102e-06	623448.7	288060.2	2.9691211e-05	288060.12	623448.3	-5.9382422e-05
0	0.65098083	0.6509806	-4.795979e-10	0.060386974	0.060386974	0	156607.39	156607.34	-0.00011543367	623529.6	287843.53	-0.00037345977	287843.44	623529.4	-0.0002597981
0	0.6508843	0.65088415	-2.1458026e-10	0.06024551	0.06024551	0	156584.17	156584.11	-5.2614796e-05	623610.06	287628	-0.00024819997	287627.94	623609.75	-2.2268408e-05
0	0.65078884	0.6507887	-4.4818516e-10	0.06010405	0.060104053	0	156561.2	156561.16	-0.000109375	623690.4	287414.12	-0.000254231	287414.06	623690.06	-0.00035629453
0	0.6506916	0.6506915	-4.707493e-10	0.059962712	0.059962712	0	156537.83	156537.77	-0.00011575255	623770.9	287197.5	-0.00028485007	287197.44	623770.56	-0.00037856295
0	0.6505956	0.6505954	-6.0170957e-10	0.059821166	0.059821166	0	156514.72	156514.67	-0.00014445154	623851.44	286982.5	-0.0004500074	286982.44	623851.1	-0.00041567697
0	0.65049917	0.650499	-3.0837616e-10	0.05967986	0.05967985	0	156491.52	156491.48	-7.9081634e-05	623931.56	286767.3	-0.00023567399	286767.25	623931.25	-0.00023010689
0	0.65040123	0.650401	-2.995275e-10	0.059538368	0.059538368	0	156467.94	156467.9	-7.174745e-05	624012.3	286549.47	-0.00023799362	286549.4	624011.94	-0.00019299287
0	0.6503043	0.6503041	-4.762797e-10	0.059396908	0.059396908	0	156444.62	156444.6	-0.00011543367	624093.1	286333.06	-0.00039155284	286332.97	624092.7	-0.0002672209
0	0.6502071	0.65020686	-2.8935151e-10	0.059255596	0.059255596	0	156421.23	156421.17	-6.6127235e-05	624173.75	286116.22	-0.0002523753	286116.12	624173.4	-0.00012247625
0	0.6501099	0.6501097	-6.5148337e-10	0.059114102	0.059114102	0	156397.86	156397.81	-0.00015401786	624253.75	285900.1	-0.00047273975	285900.03	624253.44	-0.00041567697
0	0.65001076	0.65001065	-4.8357984e-10	0.058972713	0.058972713	0	156374.03	156373.98	-0.00011467634	624335	285680.25	-0.0002839222	285680.22	624334.6	-0.00041196556
0	0.649912	0.6499118	-1.6458528e-10	0.05883125	0.05883125	0	156350.27	156350.22	-3.8584185e-05	624416.1	285460.78	-7.886728e-05	285460.72	624415.75	-0.00014474466
0	0.64981437	0.6498142	-2.6899957e-10	0.0586899	0.0586899	0	156326.78	156326.72	-6.281888e-05	624496.75	285243.4	-0.00023799362	285243.3	624496.4	-0.0001271155
0	0.64971596	0.6497157	-3.0151845e-10	0.05854845	0.05854845	0	156303.1	156303.06	-6.871811e-05	624577.8	285024.66	-0.0001196927	285024.6	624577.4	-0.0003043349
0	0.6496167	0.64961654	-3.2275527e-10	0.058406986	0.058406986	0	156279.23	156279.19	-8.027742e-05	624659.06	284804.5	-0.00022825119	284804.44	624658.6	-0.0002597981
0	0.6495174	0.64951724	-2.8006042e-10	0.05826565	0.05826565	0	156255.33	156255.3	-6.907685e-05	624739.9	284584.62	-0.00018835362	284584.53	624739.5	-0.00019299287
0	0.64941764	0.6494174	-3.9819018e-10	0.058124106	0.058124106	0	156231.33	156231.28	-9.948979e-05	624820.56	284364.25	-0.0003298508	284364.2	624820.2	-0.0002449525
0	0.6493181	0.649318	-4.738463e-10	0.05798278	0.05798278	0	156207.38	156207.36	-0.00012256856	624902.44	284143.03	-0.00035629453	284143	624902.06	-0.00036371735
0	0.64921886	0.6492186	-3.7164417e-11	0.05784131	0.05784131	0	156183.5	156183.45	-1.0841837e-05	624983.5	283922.9	-0.00019484857	283922.84	624983.06	0.000115053444
0	0.649118	0.6491178	-3.7518363e-10	0.057699848	0.057699848	0	156159.23	156159.19	-8.6415814e-05	625064.94	283700.34	-0.0002027353	283700.25	625064.56	-0.00027835512
0	0.6490192	0.64901894	-2.4201113e-10	0.05755853	0.05755853	0	156135.5	156135.42	-5.456792e-05	625145.2	283481.72	-5.9382422e-05	283481.66	625144.8	-0.0002709323
0	0.6489173	0.6489171	-4.795979e-10	0.05741706	0.05741706	0	156110.97	156110.9	-0.00011479592	625227.44	283256.88	-0.00029227286	283256.8	625227	-0.00038227436
0	0.64881706	0.6488169	-3.6810469e-10	0.057275645	0.057275645	0	156086.86	156086.8	-8.9206e-05	625308.8	283035.16	-0.00024819997	283035.1	625308.44	-0.0002412411
0	0.6487155	0.64871526	-6.747111e-11	0.05713419	0.05713419	0	156062.42	156062.38	-2.0408163e-05	625390.25	282811.66	-8.11869e-05	282811.6	625389.8	1.1134204e-05
0	0.64861363	0.6486134	-3.3978895e-10	0.056992844	0.056992844	0	156037.9	156037.84	-7.6211734e-05	625472.3	282586.78	-0.00036464518	282586.72	625472	-0.000100207835
0	0.6485133	0.6485131	-2.9886385e-10	0.056851387	0.056851387	0	156013.77	156013.72	-7.4776784e-05	625553.6	282365.03	-0.0002412411	282364.97	625553.25	-0.00018557007
0	0.64841145	0.6484112	-3.56159e-10	0.056709927	0.056709927	0	155989.28	155989.22	-8.605708e-05	625635.4	282140.75	-0.00028113867	282140.7	625634.94	-0.00023752969
0	0.64831007	0.6483098	-3.9642045e-10	0.056568585	0.056568585	0	155964.89	155964.83	-9.438775e-05	625716.44	281917.72	-0.00026350952	281917.66	625716.1	-0.00032660333
0	0.6482071	0.64820683	-4.645552e-11	0.056427047	0.056427047	0	155940.1	155940.03	-6.6964285e-06	625798.4	281691.47	5.659887e-05	281691.4	625798.06	-7.422803e-05
0	0.6481053	0.648105	-5.103471e-10	0.05628571	0.05628571	0	155915.62	155915.56	-0.0001200574	625880.1	281467.3	-0.0003683566	281467.25	625879.75	-0.00033773753
0	0.6480022	0.6480019	-6.0790367e-10	0.05614425	0.05614425	0	155890.81	155890.75	-0.00014253827	625962.1	281240.88	-0.00038366613	281240.8	625961.75	-0.00046021378
0	0.6478995	0.64789927	-1.8714938e-10	0.056002792	0.056002792	0	155866.11	155866.03	-4.7751913e-05	626044.06	281015.28	-9.278504e-06	281015.22	626043.7	-0.0002560867
0	0.6477974	0.6477972	-2.0794376e-10	0.05586147	0.05586147	0	155841.56	155841.5	-4.6277106e-05	626124.94	280791.56	-0.00018278652	280791.5	626124.5	-0.00014845606
0	0.64769334	0.6476931	-1.9865265e-10	0.055719994	0.055719994	0	155816.5	155816.45	-4.695472e-05	626207.4	280563.34	-0.00019113718	280563.25	626207.06	-0.000100207835
0	0.64758873	0.64758843	-2.4079444e-10	0.055578664	0.055578664	0	155791.34	155791.28	-5.7756697e-05	626289.9	280334.38	-0.00015680671	280334.34	626289.44	-0.00019299287
0	0.64748573	0.64748555	-6.879841e-11	0.055437125	0.055437125	0	155766.6	155766.55	-1.7219389e-05	626371.6	280108.53	-1.1134204e-05	280108.5	626371.25	-9.6496435e-05
0	0.6473815	0.64738125	-3.0207148e-10	0.05529578	0.05529578	0	155741.48	155741.44	-6.983418e-05	626453.75	279880.34	-0.0002523753	279880.28	626453.4	-0.00019670428
0	0.6472771	0.64727694	-3.616894e-10	0.055154327	0.055154327	0	155716.4	155716.34	-8.80102e-05	626536.2	279651.94	-0.00028716968	279651.9	626535.9	-0.00022268409
0	0.6471717	0.6471715	-4.855708e-11	0.05501287	0.05501287	0	155691.02	155690.97	-1.2436224e-05	626618.44	279422	-1.1134204e-05	279421.9	626618.06	-2.597981e-05
0	0.64706755	0.6470673	1.00653624e-10	0.054871522	0.054871522	0	155665.97	155665.9	2.4394132e-05	626700.8	279193.78	9.232111e-05	279193.75	626700.4	7.0516624e-05
0	0.6469625	0.6469623	-4.209755e-10	0.05473008	0.05473008	0	155640.7	155640.64	-0.000102040816	626783.06	278964.5	-0.00028670576	278964.44	626782.7	-0.00031918052
0	0.6468572	0.64685696	3.82705e-11	0.05458865	0.05458865	0	155615.36	155615.31	1.7139669e-06	626864.94	278735.22	0.00030155136	278735.16	626864.44	-0.0002597981
0	0.64675057	0.6467504	-4.4530934e-10	0.054447185	0.054447185	0	155589.72	155589.66	-0.00010682398	626947.4	278503.6	-0.00033495398	278503.5	626947	-0.0002894893
0	0.6466462	0.646646	-1.7630976e-10	0.054305855	0.054305855	0	155564.58	155564.53	-4.392538e-05	627029.7	278275.03	-0.00012804335	278275	627029.25	-0.00014103325
0	0.64653915	0.646539	-1.6989447e-10	0.054164406	0.054164406	0	155538.84	155538.81	-4.1135205e-05	627112.3	278042.56	-9.2785034e-05	278042.53	627111.94	-0.00013732185
0	0.6464334	0.6464332	-1.3118154e-10	0.054022938	0.054022938	0	155513.39	155513.36	-3.260523e-05	627195	277811.84	-0.00010855849	277811.78	627194.56	-7.1908406e-05
0	0.64632636	0.6463261	-1.1116142e-10	0.0538816	0.0538816	0	155487.64	155487.6	-2.9017858e-05	627277.5	277579.47	-2.690766e-05	277579.4	627277.1	-0.00010763064
0	0.6462211	0.6462208	-1.2742085e-10	0.05374007	0.053740066	0	155462.33	155462.27	-2.8101083e-05	627359.25	277350.28	-0.00021108595	277350.28	627358.8	2.9691211e-05
0	0.64611274	0.6461125	-1.3383614e-10	0.05359871	0.05359871	0	155436.27	155436.2	-3.5674428e-05	627442.5	277115.3	-4.1289342e-05	277115.25	627442.1	-0.00012618765
0	0.64600474	0.6460045	-8.815488e-11	0.053457264	0.053457264	0	155410.3	155410.22	-1.5943877e-05	627525.8	276880.9	-7.422803e-06	276880.84	627525.44	-7.422803e-05
0	0.64589846	0.64589816	-3.497437e-10	0.053315822	0.05331583	0	155384.7	155384.64	-8.0357146e-05	627608.25	276649.6	-0.00017582765	276649.53	627607.8	-0.0002672209
0	0.64579076	0.64579046	-2.9864264e-11	0.053174462	0.053174462	0	155358.78	155358.7	-3.8265307e-06	627690.75	276416.28	-0.00011551737	276416.25	627690.4	8.165083e-05
0	0.6456813	0.6456811	-3.099247e-10	0.053033024	0.053033024	0	155332.48	155332.44	-7.780612e-05	627774.4	276179.6	-0.00026954053	276179.56	627773.9	-0.00017443587
0	0.64557403	0.64557374	-9.6671726e-11	0.052891586	0.052891586	0	155306.64	155306.61	-2.1603953e-05	627857.06	275946.56	-0.00014891998	275946.5	627856.75	4.8248217e-05
0	0.6454652	0.6454649	3.4509815e-11	0.052750126	0.052750126	0	155280.48	155280.42	4.384566e-06	627940	275711.3	5.195962e-05	275711.28	627939.6	1.8557008e-05
0	0.6453566	0.64535636	1.1259933e-10	0.052608777	0.052608777	0	155254.36	155254.3	2.7104592e-05	628022.9	275476.44	0.0001456725	275476.4	628022.5	7.422803e-06
0	0.64524764	0.64524734	-1.9710414e-10	0.05246734	0.052467346	0	155228.12	155228.08	-4.6277106e-05	628105.9	275240.75	-0.00012386803	275240.72	628105.56	-0.00014474466
0	0.6451376	0.6451373	-4.866769e-12	0.052325882	0.052325882	0	155201.67	155201.61	-4.504145e-06	628189.4	275003.28	7.330018e-05	275003.25	628189	-6.680522e-05
0	0.6450289	0.64502853	-1.5584721e-10	0.05218454	0.05218454	0	155175.5	155175.44	-3.3123404e-05	628272.06	274768.38	2.783551e-06	274768.28	628271.7	-0.00019670428
0	0.644918	0.6449177	-2.0871802e-10	0.052043002	0.052043002	0	155148.84	155148.8	-4.815051e-05	628355.3	274530	-0.0001252598	274529.94	628354.9	-0.00019670428
0	0.64480746	0.6448072	-6.813476e-11	0.051901635	0.051901635	0	155122.27	155122.2	-1.163903e-05	628438.75	274291.84	-3.3866538e-05	274291.78	628438.4	-4.8248217e-05
0	0.6446979	0.64469767	-3.0527914e-11	0.0517602	0.0517602	0	155095.9	155095.86	-8.609694e-06	628521.75	274055.4	-3.1082986e-05	274055.3	628521.4	-2.2268408e-05
0	0.6445876	0.6445872	-2.4732033e-10	0.051618766	0.051618766	0	155069.33	155069.28	-5.6122448e-05	628605.1	273817.38	-0.00013129083	273817.34	628604.7	-0.00017443587
0	0.64447653	0.6444763	1.4334846e-10	0.05147742	0.05147742	0	155042.62	155042.56	3.1967473e-05	628688.5	273578.62	7.886728e-05	273578.62	628688	0.0001252598
0	0.6443653	0.644365	-1.9909508e-12	0.05133596	0.05133596	0	155015.88	155015.83	2.5510203e-06	628772.3	273339.22	-0.00014984784	273339.16	628771.8	0.00014474466
0	0.64425325	0.64425296	-3.551635e-10	0.051194515	0.051194515	0	154988.94	154988.86	-8.436304e-05	628855.56	273099.03	-0.00023521007	273099.03	628855.06	-0.0002338183
0	0.6441418	0.6441416	-7.244849e-11	0.05105309	0.05105309	0	154962.12	154962.06	-1.7219389e-05	628938.9	272859.75	-6.7733075e-05	272859.72	628938.4	-6.309382e-05
0	0.64403117	0.64403087	-1.3405736e-10	0.050911706	0.050911706	0	154935.48	154935.42	-3.603316e-05	629021.75	272621.84	-5.799065e-05	272621.8	629021.44	-0.00015216746
0	0.6439185	0.64391816	-1.900252e-10	0.05077028	0.05077028	0	154908.4	154908.34	-4.4622928e-05	629105.9	272380.03	-0.00016330167	272380	629105.44	-5.9382422e-05
0	0.6438044	0.64380413	-1.5385626e-10	0.050628845	0.050628845	0	154880.94	154880.88	-3.9859693e-05	629190.2	272136.03	-6.866093e-05	272136	629189.75	-0.00017072447
0	0.64369315	0.64369285	-5.203018e-10	0.050487474	0.050487474	0	154854.19	154854.12	-0.00012563776	629273.3	271897.12	-0.00037021228	271897.06	629272.94	-0.00036742873
0	0.6435792	0.64357895	-2.7209662e-11	0.050345946	0.050345946	0	154826.77	154826.69	-7.3341835e-06	629357.3	271653.6	-1.5309532e-05	271653.53	629356.94	-1.8557008e-05
0	0.64346606	0.64346576	-3.0107603e-10	0.05020459	0.05020459	0	154799.55	154799.5	-7.206632e-05	629441.06	271411.47	-0.00033959324	271411.47	629440.6	-9.6496435e-05
0	0.64335203	0.64335173	-1.2443443e-10	0.050063137	0.050063137	0	154772.12	154772.05	-2.614796e-05	629525.06	271167.75	-1.1134204e-05	271167.72	629524.7	-0.00013732185
0	0.64323866	0.64323837	-5.118956e-10	0.04992171	0.04992171	0	154744.83	154744.77	-0.00012185108	629609.06	270925.03	-0.00039387247	270925.03	629608.56	-0.00036000594
0	0.64312494	0.64312464	-2.229865e-10	0.049780354	0.049780354	0	154717.48	154717.4	-5.452806e-05	629692.75	270682.16	-0.00030155136	270682.2	629692.3	-1.1134204e-05
0	0.6430097	0.6430095	-2.3382613e-10	0.0496389	0.0496389	0	154689.77	154689.7	-5.1339284e-05	629776.8	270436.8	-0.00019670428	270436.75	629776.44	-0.000111342044
0	0.64289594	0.64289564	-3.1479144e-10	0.049497455	0.049497455	0	154662.39	154662.31	-7.364078e-05	629860.7	270193.66	-0.0003187166	270193.62	629860.2	-0.00012989905
0	0.6427807	0.6427804	-4.964104e-10	0.04935602	0.04935602	0	154634.67	154634.61	-0.00011830357	629944.5	269948.5	-0.00035954203	269948.47	629944.06	-0.00034144893
0	0.6426649	0.6426646	6.5922594e-11	0.04921464	0.04921464	0	154606.83	154606.75	1.7219389e-05	630029.3	269701.56	5.6134948e-05	269701.53	630028.8	4.4536817e-05
0	0.64254946	0.6425492	-4.0792372e-10	0.049073216	0.04907321	0	154579.06	154578.97	-0.00010172194	630113.2	269456.2	-0.00024634428	269456.2	630112.7	-0.00034144893
0	0.6424343	0.642434	-4.5305193e-10	0.04893179	0.04893179	0	154551.34	154551.28	-0.00011096939	630197.44	269210.62	-0.00033031474	269210.62	630196.94	-0.00029598427
0	0.64231884	0.64231855	-6.3035716e-10	0.048790418	0.048790418	0	154523.55	154523.48	-0.00015306122	630281.3	268965.1	-0.0004017592	268965.1	630280.8	-0.00046021378
0	0.6422018	0.6422015	-3.7120174e-10	0.048648883	0.048648883	0	154495.39	154495.31	-8.864796e-05	630365.6	268716.78	-0.0003521192	268716.75	630365.2	-0.00017443587
0	0.64208496	0.6420846	-3.947613e-10	0.04850753	0.04850753	0	154467.3	154467.22	-9.247449e-05	630450.5	268468.5	-0.00036603695	268468.47	630450.06	-0.00020041567
0	0.6419694	0.64196914	-2.29623e-10	0.048366077	0.048366077	0	154439.5	154439.45	-4.9744896e-05	630534.1	268223.16	-0.0001401054	268223.12	630533.7	-0.00014845606
0	0.64185166	0.64185137	-3.4659137e-10	0.048224654	0.048224654	0	154411.17	154411.11	-8.250956e-05	630618.94	267973.47	-0.00027186016	267973.44	630618.56	-0.00020783849
0	0.6417346	0.6417343	-3.5394682e-12	0.04808329	0.04808329	0	154383.02	154382.94	-9.566327e-07	630703.1	267725.25	9.232111e-05	267725.28	630702.6	-0.00010113569
0	0.64161676	0.6416165	-1.1636002e-10	0.04794185	0.04794185	0	154354.67	154354.58	-3.093112e-05	630787.4	267476.25	-3.2474763e-05	267476.2	630786.9	-0.00014103325
0	0.64149857	0.64149815	-2.759126e-10	0.047800384	0.047800384	0	154326.22	154326.14	-6.5369895e-05	630872.3	267225.7	-9.464074e-05	267225.66	630871.75	-0.00029320072
0	0.6413807	0.6413804	-2.6778288e-10	0.047658965	0.047658965	0	154297.89	154297.8	-6.441327e-05	630956.8	266976.16	-0.0002857779	266976.12	630956.4	-7.422803e-05
0	0.6412624	0.6412621	-1.4755158e-10	0.04751758	0.04751758	0	154269.4	154269.34	-3.252551e-05	631041.2	266726.1	-0.00021711698	266726.1	631040.8	-1.1134204e-05
0	0.6411424	0.64114213	-8.6755686e-10	0.047376156	0.047376156	0	154240.55	154240.48	-0.00021173469	631126.44	266472.94	-0.0005989274	266472.9	631126.06	-0.00067547505
0	0.6410248	0.6410244	-6.1442956e-10	0.047234733	0.047234733	0	154212.25	154212.16	-0.00014859694	631210.5	266224.25	-0.00043005863	266224.22	631210	-0.00044907958
0	0.6409041	0.6409037	-3.6462053e-10	0.047093347	0.047093347	0	154183.22	154183.14	-8.09949e-05	631295.5	265970.2	-0.00017350801	265970.2	631295.06	-0.0003006235
0	0.64078456	0.64078414	-6.35058e-10	0.046951823	0.046951823	0	154154.45	154154.38	-0.00015449617	631380.7	265717.66	-0.00042495548	265717.66	631380.25	-0.0004639252
0	0.6406643	0.640664	-4.4143805e-10	0.046810463	0.046810463	0	154125.52	154125.44	-0.000107142856	631465.3	265464.7	-0.00032521156	265464.66	631464.94	-0.00031175773
0	0.64054465	0.64054435	-6.9224254e-10	0.04666902	0.04666902	0	154096.75	154096.66	-0.00016444117	631550.4	265212.2	-0.00048572966	265212.2	631549.8	-0.0005047506
0	0.6404249	0.64042467	-6.0779305e-11	0.046527658	0.046527658	0	154067.95	154067.86	-1.556521e-05	631634.75	264960.16	2.597981e-05	264960.12	631634.25	-8.165083e-05
0	0.6403027	0.6403023	-3.0262454e-10	0.046386234	0.046386234	0	154038.53	154038.45	-7.461735e-05	631720.1	264703.62	-0.00017814727	264703.62	631719.6	-0.0002597981
0	0.6401825	0.6401821	-3.627955e-10	0.0462448	0.0462448	0	154009.6	154009.53	-8.354592e-05	631805	264450.38	-0.00015587886	264450.38	631804.56	-0.00031175773
0	0.64006054	0.6400602	-3.458171e-10	0.04610342	0.04610342	0	153980.27	153980.2	-8.836894e-05	631889.94	264194.75	-0.00023660185	264194.75	631889.44	-0.0002820665
0	0.63993907	0.6399387	-2.2022129e-10	0.045961898	0.045961898	0	153951.06	153950.98	-4.838967e-05	631975.1	263939.7	-0.00019392073	263939.66	631974.6	-7.793943e-05
0	0.63981724	0.6398169	-4.4176987e-10	0.045820512	0.045820512	0	153921.75	153921.66	-0.00010459184	632060.44	263683.75	-0.00020134353	263683.78	632059.94	-0.00040825416
0	0.6396942	0.6396939	-3.2679245e-10	0.0456791	0.045679096	0	153892.14	153892.06	-8.0357146e-05	632145.9	263426.03	-0.00022593157	263426.06	632145.4	-0.0002338183
0	0.639572	0.6395717	-5.5636017e-11	0.045537677	0.045537677	0	153862.75	153862.67	-1.698023e-05	632230.9	263169.97	-5.0567844e-05	263169.97	632230.44	-3.7114016e-05
0	0.6394501	0.6394497	-2.8680752e-10	0.045396283	0.045396283	0	153833.42	153833.31	-6.760204e-05	632315.8	262914.25	-0.00023474614	262914.28	632315.3	-0.00017814727
0	0.6393266	0.63932616	-3.2159386e-10	0.04525487	0.04525487	0	153803.7	153803.61	-7.537468e-05	632401.3	262655.88	-0.000254231	262655.88	632400.8	-0.00020783849
0	0.63920295	0.63920265	-2.7912025e-10	0.045113385	0.045113385	0	153773.97	153773.89	-6.25e-05	632486.7	262397.47	-0.00014845606	262397.5	632486.2	-0.00020041567