# t (s)	mx ()	my ()	mz ()	B_extx (T)	B_exty (T)	B_extz (T)	m_fullx (A/m)	m_fully (A/m)	m_fullz (A/m)	m_full.region1x (A/m)	m_full.region1y (A/m)	m_full.region1z (A/m)	m_full.region2x (A/m)	m_full.region2y (A/m)	m_full.region2z (A/m)
0	0.6464126	0.64641196	-1.8171045e-10	0.070710704	0.070710704	0	150311.14	150310.97	-4.1739593e-05	636991.7	267985.7	-0.00013918645	267986	636991	-0.00011380506
0	0.64632183	0.6463218	-2.426044e-10	0.07056914	0.07056914	0	150290	150290	-5.4260167e-05	637065.44	267785.22	-0.00020290262	267785.06	637065.2	-0.00015805163
0	0.6462277	0.6462279	-2.3274462e-10	0.07042789	0.07042789	0	150268.16	150268.17	-5.1931576e-05	637144.3	267574.97	-2.92403e-05	267574.7	637144	-0.0003039504
0	0.64613336	0.6461334	-1.7271043e-10	0.0702864	0.0702864	0	150246.2	150246.2	-3.4268287e-05	637223.2	267363.8	-8.632679e-05	267363.5	637222.94	-0.00012438343
0	0.6460388	0.6460388	-3.4936473e-10	0.07014501	0.07014501	0	150224.19	150224.2	-8.175438e-05	637301.9	267152.53	-0.00024837643	267152.3	637301.75	-0.00023713856
0	0.6459441	0.6459442	-1.5490707e-10	0.07000352	0.07000352	0	150202.19	150202.22	-3.9861003e-05	637380.4	266941.75	-1.3539484e-05	266941.44	637380.1	-0.00020387763
0	0.64584816	0.6458483	-1.4824104e-10	0.069862254	0.069862254	0	150179.89	150179.9	-3.4814122e-05	637459.25	266728.5	-8.644183e-05	266728.25	637459	-0.00013911903
0	0.64575255	0.6457526	-1.6365796e-10	0.0697207	0.0697207	0	150157.64	150157.64	-3.5421737e-05	637538.7	266515.16	-0.00015465758	266514.9	637538.5	-8.359412e-05
0	0.6456576	0.6456577	-1.3550577e-10	0.06957923	0.06957923	0	150135.56	150135.58	-2.7423162e-05	637617.56	266303.4	-5.4153785e-05	266303.16	637617.3	-0.00012643474
0	0.6455616	0.64556164	-1.7003823e-10	0.06943795	0.06943795	0	150113.25	150113.25	-3.6733498e-05	637696.4	266090.12	-6.1798746e-05	266089.88	637696.1	-0.00017636096
0	0.6454652	0.64546525	-2.7489702e-10	0.06929643	0.06929643	0	150090.84	150090.84	-6.450054e-05	637776.06	265875.56	-0.00016292685	265875.25	637775.8	-0.00022649691
0	0.6453698	0.6453699	-2.2175817e-10	0.06915509	0.06915509	0	150068.67	150068.67	-4.916108e-05	637854.9	265663.12	-0.00013942335	265662.8	637854.9	-0.00018278032
0	0.6452731	0.6452731	-2.5528857e-10	0.0690136	0.0690136	0	150046.14	150046.16	-5.7619305e-05	637933.7	265448.88	-0.00012052686	265448.56	637933.5	-0.0002502549
0	0.6451765	0.64517653	-1.4866074e-10	0.068872124	0.068872124	0	150023.7	150023.72	-3.1782954e-05	638012.9	265234.47	-8.0111524e-05	265234.22	638012.7	-0.000117408694
0	0.64507973	0.64507973	-2.408646e-10	0.06873078	0.06873078	0	150001.19	150001.22	-5.9200393e-05	638092.6	265019.34	-0.00010884709	265019.03	638092.4	-0.0002527463
0	0.6449826	0.6449826	-2.6289834e-10	0.06858929	0.06858929	0	149978.61	149978.62	-5.8651363e-05	638172	264803.88	-0.000102299404	264803.6	638171.8	-0.0002533597
0	0.6448862	0.6448864	-1.8706858e-10	0.06844799	0.06844799	0	149956.19	149956.22	-4.2620006e-05	638251.2	264589.84	-0.00010223068	264589.56	638250.94	-0.00015620598
0	0.64478886	0.644789	-1.3426474e-10	0.0683065	0.0683065	0	149933.56	149933.58	-3.0486686e-05	638330.56	264374.2	-6.24504e-05	264373.9	638330.4	-0.00011456968
0	0.6446904	0.6446905	-1.3276638e-10	0.06816516	0.06816516	0	149910.66	149910.67	-2.7944308e-05	638410.25	264156.66	-6.473706e-05	264156.3	638410	-9.9376506e-05
0	0.64459354	0.6445936	-1.4697518e-10	0.068023674	0.068023674	0	149888.14	149888.16	-3.395704e-05	638489.5	263941.7	-9.142321e-05	263941.44	638489.3	-0.0001466026
0	0.64449525	0.64449525	-4.8072846e-10	0.067882195	0.067882195	0	149865.28	149865.28	-0.00011005798	638568.56	263724.94	-0.00031495158	263724.66	638568.4	-0.00039081098
0	0.6443966	0.6443968	-3.5202347e-10	0.067740865	0.067740865	0	149842.38	149842.4	-8.075356e-05	638648.5	263507.2	-0.00019150655	263506.9	638648.25	-0.0003029279
0	0.6442986	0.64429855	-1.8164331e-10	0.06759933	0.06759933	0	149819.53	149819.55	-4.2646257e-05	638728.56	263289.66	-0.00012134182	263289.38	638728.4	-0.00014135892
0	0.6441995	0.6441996	-2.2270367e-10	0.06745806	0.06745806	0	149796.53	149796.52	-5.7012214e-05	638808.1	263071.38	-4.3469965e-05	263071.12	638807.94	-0.00027693086
0	0.644101	0.64410096	-2.6190627e-10	0.06731656	0.06731656	0	149773.6	149773.61	-6.4667685e-05	638888	262853.6	-0.00018944677	262853.34	638887.75	-0.00021113921
0	0.6440025	0.6440026	-2.4097366e-10	0.06717502	0.06717502	0	149750.72	149750.73	-5.8998343e-05	638967.44	262636.34	-0.0002296706	262636.1	638967.25	-0.00012188442
0	0.6439027	0.6439029	-3.3169656e-10	0.06703376	0.06703376	0	149727.52	149727.53	-7.534545e-05	639047	262417.22	-0.0002161292	262416.97	639046.7	-0.00023791697
0	0.6438033	0.6438033	-2.703517e-10	0.066892266	0.066892266	0	149704.39	149704.4	-5.9865168e-05	639127.1	262197.66	-0.00019518506	262197.44	639126.94	-0.00016799867
0	0.6437041	0.6437042	-3.4056938e-10	0.06675089	0.06675089	0	149681.34	149681.34	-8.033193e-05	639207.1	261979.03	-0.00014467441	261978.72	639206.9	-0.00035974834
0	0.64360356	0.6436037	-1.8754788e-10	0.066609405	0.066609405	0	149657.94	149657.94	-4.1991978e-05	639286.94	261758.23	-0.00011954828	261757.95	639286.8	-0.00014000761
0	0.64350426	0.6435043	-1.058654e-10	0.066468135	0.066468135	0	149634.84	149634.88	-2.0191237e-05	639366.94	261539.25	-0.00011349942	261539	639366.75	-1.4516187e-05
0	0.6434036	0.6434036	-1.3177603e-10	0.066326596	0.066326596	0	149611.44	149611.42	-3.079579e-05	639446.6	261318.6	-7.429157e-05	261318.28	639446.44	-0.00011857365
0	0.64330286	0.6433029	-1.4332147e-10	0.06618511	0.06618511	0	149588.02	149588.03	-3.6138088e-05	639527.1	261097.12	-0.000106955944	261096.88	639526.94	-0.000106821266
0	0.6432028	0.6432028	-3.3322758e-10	0.06604383	0.06604383	0	149564.73	149564.73	-7.522591e-05	639607.25	260876.77	-0.00018553078	260876.47	639607.06	-0.000270071
0	0.6431009	0.643101	-1.711164e-10	0.06590228	0.06590228	0	149541.06	149541.08	-3.6896654e-05	639687.6	260653.95	-9.1117625e-05	260653.66	639687.4	-0.00015921122
0	0.6430006	0.6430006	-2.3542723e-10	0.065760985	0.065760985	0	149517.75	149517.75	-5.4191492e-05	639767.6	260433.4	-8.174532e-05	260433.16	639767.44	-0.0002760968
0	0.64289886	0.6428989	-1.2266366e-10	0.065619476	0.065619476	0	149494.1	149494.08	-3.2128326e-05	639847.44	260211.19	-9.839251e-05	260210.95	639847.25	-6.3214895e-05
0	0.64279723	0.64279723	-2.7755395e-10	0.065478206	0.065478206	0	149470.45	149470.45	-6.604734e-05	639927.9	259988.42	-0.0002062741	259988.19	639927.7	-0.00020295956
0	0.64269537	0.6426954	-8.317189e-11	0.065336674	0.065336674	0	149446.77	149446.78	-1.921843e-05	640008.2	259765.7	-8.741504e-05	259765.44	640008	-4.3142336e-05
0	0.6425934	0.64259344	-2.2129153e-10	0.06519518	0.06519518	0	149423.05	149423.05	-5.086176e-05	640088.94	259542.05	-0.00013083474	259541.78	640088.75	-0.00015418977
0	0.6424919	0.6424919	-3.104403e-10	0.0650539	0.0650539	0	149399.42	149399.44	-7.3218165e-05	640169.25	259319.58	-0.00023278185	259319.28	640169	-0.00022074806
0	0.6423882	0.64238834	-1.8272407e-10	0.06491235	0.06491235	0	149375.36	149375.36	-4.3095122e-05	640250.25	259093.62	-9.216206e-05	259093.39	640250	-0.00018115458
0	0.64228636	0.64228636	-3.478844e-10	0.064771056	0.064771056	0	149351.62	149351.64	-8.36198e-05	640330.44	258870.52	-0.00034733413	258870.28	640330.3	-0.00016951971
0	0.64218324	0.6421833	-2.1165959e-10	0.06462957	0.06462957	0	149327.66	149327.66	-5.192528e-05	640411.06	258645.64	-0.0001541802	258645.39	640410.9	-0.00016940612
0	0.6420801	0.6420802	-2.1339613e-10	0.064488046	0.064488046	0	149303.7	149303.72	-5.0894574e-05	640492	258420.47	-0.00017500375	258420.22	640491.75	-0.00015977945
0	0.6419764	0.6419765	-3.8621098e-10	0.06434676	0.06434676	0	149279.58	149279.6	-8.426817e-05	640572.3	258194.98	-0.00022675435	258194.72	640572.06	-0.00029420765
0	0.6418735	0.6418736	-1.9690166e-10	0.06420526	0.06420526	0	149255.64	149255.64	-4.3322947e-05	640653.3	257969.84	-9.295039e-05	257969.61	640653	-0.00018136381
0	0.6417703	0.6417703	-7.151125e-11	0.06406394	0.06406394	0	149231.66	149231.64	-1.8475534e-05	640733.44	257745.14	-0.00010100031	257744.88	640733.25	4.1870944e-06
0	0.64166516	0.6416652	-1.6156404e-10	0.06392242	0.06392242	0	149207.2	149207.22	-3.325443e-05	640814.56	257517	-8.4531355e-05	257516.73	640814.3	-0.00014095895
0	0.641561	0.64156103	-2.678458e-10	0.063781135	0.063781135	0	149182.97	149182.97	-6.1396175e-05	640895.8	257289.84	-7.798628e-05	257289.58	640895.56	-0.00026600974
0	0.6414576	0.6414576	-4.5369646e-11	0.06363964	0.06363964	0	149158.9	149158.92	-1.3065681e-05	640976.25	257064.66	5.3596585e-05	257064.44	640976	-0.00012099301
0	0.6413519	0.64135176	-2.3591196e-10	0.06349811	0.06349811	0	149134.34	149134.36	-5.0491253e-05	641057.3	256835.58	-0.00019991281	256835.28	641057.06	-0.00013673153
0	0.64124775	0.64124775	-2.9569505e-10	0.06335685	0.06335685	0	149110.16	149110.14	-6.950466e-05	641138.25	256609	-0.00021391777	256608.72	641138	-0.0002133914
0	0.6411423	0.64114225	6.19787e-11	0.06321528	0.06321528	0	149085.62	149085.62	1.3807199e-05	641218.75	256380.84	8.67504e-05	256380.61	641218.44	9.09379e-06
0	0.64103544	0.6410355	-1.5589627e-10	0.063074	0.063074	0	149060.78	149060.78	-3.771675e-05	641301.4	256148.6	-0.0001032058	256148.33	641301.1	-0.00013604933
0	0.6409315	0.6409315	-6.014598e-11	0.0629325	0.0629325	0	149036.6	149036.6	-2.105934e-05	641381.3	255922.89	-6.729185e-05	255922.69	641381.1	-3.0600208e-05
0	0.6408254	0.64082533	-9.2953735e-11	0.06279099	0.06279099	0	149011.9	149011.9	-2.0344018e-05	641462.7	255693.02	-3.7665908e-05	255692.8	641462.4	-8.1566475e-05
0	0.64071965	0.6407197	-1.8355344e-10	0.06264971	0.06264971	0	148987.36	148987.36	-4.2846124e-05	641543.7	255464.11	-7.662995e-05	255463.84	641543.56	-0.00017672559
0	0.6406134	0.6406133	-7.946017e-12	0.0625082	0.0625082	0	148962.62	148962.64	-1.9098845e-06	641625.1	255233.86	5.6165612e-05	255233.61	641624.94	-4.2853542e-05
0	0.6405065	0.6405065	-1.7527725e-10	0.062366873	0.062366873	0	148937.78	148937.78	-3.804557e-05	641706.06	255003.23	-0.00012016591	255003	641705.8	-0.00012912882
0	0.6404008	0.6404008	-2.7409847e-10	0.062225346	0.062225346	0	148913.22	148913.22	-6.401507e-05	641787.2	254774.27	-0.00019352937	254774.05	641787.06	-0.00016187828
0	0.64029294	0.640293	-1.0228781e-10	0.062084075	0.062084075	0	148888.12	148888.12	-2.2924452e-05	641868.75	254541.62	-2.4463126e-05	254541.36	641868.56	-0.00011435966
0	0.64018476	0.64018476	-4.8111715e-10	0.06194257	0.06194257	0	148862.95	148862.95	-0.000117208176	641951.1	254307.75	-0.00038601767	254307.47	641951	-0.00032538633
0	0.64007896	0.64007896	-3.0834757e-10	0.061801057	0.061801057	0	148838.38	148838.36	-6.852345e-05	642031.7	254079.06	-0.00022891077	254078.8	642031.44	-0.00019331965
0	0.6399708	0.6399707	-1.6068916e-10	0.061659787	0.061659787	0	148813.19	148813.19	-3.972593e-05	642113.1	253846.19	-7.524777e-05	253845.94	642112.94	-0.00016467735
0	0.6398636	0.63986355	-4.142527e-10	0.061518222	0.061518222	0	148788.28	148788.28	-9.728908e-05	642194.7	253614.55	-0.0003716172	253614.33	642194.44	-0.00022865593
0	0.63975483	0.63975483	-1.9739432e-10	0.061376926	0.061376926	0	148762.97	148762.98	-4.671191e-05	642276.25	253380.8	-5.2757903e-05	253380.55	642275.94	-0.00020895702
0	0.63964635	0.63964635	-1.7277531e-10	0.061235435	0.061235435	0	148737.78	148737.78	-3.9664323e-05	642358.2	253146.9	-0.00013374434	253146.67	642357.94	-0.000117228024
0	0.6395387	0.63953865	-3.0994388e-10	0.06109393	0.06109393	0	148712.72	148712.72	-7.220544e-05	642439.5	252914.9	-0.00025823567	252914.66	642439.25	-0.00019746697
0	0.63942945	0.6394295	-2.2243835e-10	0.06095266	0.06095266	0	148687.33	148687.34	-5.1773586e-05	642520.9	252680.64	-0.00010625704	252680.4	642520.56	-0.00021590052
0	0.6393201	0.63932	-2.2575275e-10	0.060811136	0.060811136	0	148661.89	148661.89	-5.499994e-05	642603.4	252445.02	-0.00018992712	252444.8	642602.94	-0.00015238358
0	0.6392109	0.6392109	4.413335e-11	0.060669802	0.060669802	0	148636.5	148636.5	9.999524e-06	642684.56	252210.9	-0.00015690117	252210.64	642684.25	0.00024709207
0	0.6391016	0.63910156	-2.4803226e-10	0.060528312	0.060528312	0	148611.1	148611.11	-5.7264624e-05	642766.6	251975.94	-0.00015678894	251975.64	642766.3	-0.00019419588
0	0.63899183	0.63899183	-2.0181617e-10	0.060387015	0.060387015	0	148585.58	148585.58	-4.3580912e-05	642848.25	251740.62	-0.00015953195	251740.4	642848.06	-0.00012274412
0	0.63888144	0.63888144	2.3498042e-11	0.06024551	0.06024551	0	148559.92	148559.9	2.9047121e-06	642930.44	251503.84	3.1352032e-05	251503.62	642930.2	-1.5901735e-05
0	0.6387718	0.6387717	-2.70436e-10	0.06010401	0.06010401	0	148534.4	148534.39	-6.325749e-05	643012.75	251268.02	-0.00018486884	251267.81	643012.44	-0.0002232255
0	0.6386614	0.6386613	7.203845e-11	0.059962716	0.059962716	0	148508.73	148508.73	1.7176088e-05	643094.6	251031.66	7.3622505e-05	251031.39	643094.4	2.8089782e-05
0	0.6385509	0.6385509	1.0722938e-11	0.059821162	0.059821162	0	148483.06	148483.05	4.0959235e-06	643176.44	250795.06	-4.924271e-05	250794.8	643176.25	6.8806985e-05
0	0.6384393	0.63843936	-1.1352699e-10	0.059679877	0.059679877	0	148457.12	148457.12	-2.7486516e-05	643258.25	250557.19	-7.996986e-05	250556.92	643257.94	-9.095814e-05
0	0.638329	0.638329	-7.1083965e-11	0.059538364	0.059538364	0	148431.45	148431.45	-1.31748875e-05	643340.2	250320.75	1.4612994e-05	250320.52	643339.9	-9.741558e-05
0	0.6382172	0.6382173	-2.1163385e-10	0.059396874	0.059396874	0	148405.44	148405.45	-4.6114004e-05	643422.6	250081.75	-0.00015493293	250081.52	643422.4	-0.00014211948
0	0.63810533	0.6381054	-1.5671094e-10	0.05925559	0.05925559	0	148379.42	148379.42	-3.944377e-05	643505	249842.69	-0.00012436624	249842.47	643504.75	-0.00011772075
0	0.63799393	0.6379939	-1.6162918e-10	0.05911408	0.05911408	0	148353.52	148353.53	-4.060461e-05	643587.2	249604.58	-4.589707e-05	249604.33	643586.8	-0.00018129492
0	0.63788193	0.63788193	-1.535757e-10	0.05897274	0.05897274	0	148327.48	148327.47	-3.6913483e-05	643669.3	249365.58	-0.00013300654	249365.36	643669.1	-8.7312044e-05
0	0.6377689	0.63776886	-1.9857992e-10	0.05883124	0.05883124	0	148301.2	148301.19	-4.554849e-05	643751.25	249125.38	-0.00014555699	249125.14	643751.06	-0.00012590944
0	0.6376562	0.6376562	1.5002e-11	0.05868994	0.05868994	0	148275.02	148274.98	1.8105135e-06	643833.9	248885.17	2.0195423e-05	248884.94	643833.56	3.6809822e-06
0	0.63754356	0.63754356	-7.968597e-11	0.058548454	0.058548454	0	148248.8	148248.78	-1.6703973e-05	643916.56	248644.69	2.6406988e-05	248644.47	643916.3	-0.00011978354
0	0.63743037	0.63743037	-1.5246036e-10	0.058406953	0.058406953	0	148222.48	148222.48	-3.373732e-05	643999	248403.77	-0.0001316269	248403.55	643998.7	-9.077815e-05
0	0.6373157	0.63731563	-1.735773e-10	0.05826566	0.05826566	0	148195.83	148195.81	-3.5518926e-05	644082.44	248159.75	-0.00010835375	248159.52	644082.1	-0.00012779448
0	0.63720375	0.63720363	-2.0776204e-10	0.05812409	0.05812409	0	148169.78	148169.75	-4.482692e-05	644164.06	247921.38	-0.00016827227	247921.14	644163.75	-0.00010189589
0	0.63708895	0.63708895	-1.560753e-10	0.057982814	0.057982814	0	148143.1	148143.1	-3.50705e-05	644246.56	247678.22	-0.00012230955	247677.95	644246.3	-0.00010187184
0	0.6369754	0.6369753	-2.6136263e-10	0.05784131	0.05784131	0	148116.67	148116.66	-6.3723004e-05	644329.56	247436.16	-0.00019387441	247435.94	644329.4	-0.00017652675
0	0.6368607	0.63686067	-3.117965e-10	0.057699807	0.057699807	0	148090.02	148090.03	-7.3383126e-05	644412.25	247192.95	-0.00018526588	247192.73	644411.94	-0.00027169817
0	0.63674664	0.6367465	-2.0041709e-10	0.05755853	0.05755853	0	148063.47	148063.47	-4.4540437e-05	644494.6	246950.77	-0.00010649634	246950.58	644494.44	-0.00017423794
0	0.63663167	0.63663167	-2.2546849e-10	0.057417024	0.057417024	0	148036.75	148036.77	-5.1271647e-05	644577.4	246707.12	-0.00017445153	246706.94	644577.25	-0.00014437918
0	0.63651645	0.6365164	-1.033299e-10	0.057275668	0.057275668	0	148009.98	148009.97	-2.2317241e-05	644660.4	246462.92	-8.285328e-05	246462.69	644660.1	-5.633055e-05
0	0.6364014	0.6364013	-8.286318e-11	0.05713418	0.05713418	0	147983.2	147983.2	-2.0553509e-05	644742.94	246219.19	-5.2551728e-05	246218.97	644742.6	-8.287182e-05
0	0.63628554	0.6362855	6.479407e-11	0.056992885	0.056992885	0	147956.28	147956.23	1.792056e-05	644825.8	245974.08	5.9649537e-05	245973.86	644825.5	4.6974976e-05
0	0.6361693	0.63616925	-2.3829075e-10	0.056851383	0.056851383	0	147929.27	147929.23	-5.9030634e-05	644908.94	245728.31	-0.00018145387	245728.06	644908.6	-0.00016868858
0	0.6360533	0.6360533	-2.0072732e-10	0.056709897	0.056709897	0	147902.27	147902.27	-5.0453877e-05	644992	245482.9	-7.550223e-05	245482.69	644991.7	-0.00020181444
0	0.63593704	0.635937	-1.8936643e-10	0.0565686	0.0565686	0	147875.25	147875.23	-3.69884e-05	645074.6	245237.53	-0.00023082574	245237.31	645074.3	-1.5571895e-05
0	0.63582003	0.63582003	-3.4952305e-10	0.056427035	0.056427035	0	147848.05	147848.03	-8.1147235e-05	645157.9	244990.44	-0.00030108966	244990.22	645157.56	-0.00020211028
0	0.63570344	0.6357035	-2.5131414e-10	0.056285743	0.056285743	0	147820.92	147820.9	-5.4205393e-05	645240.94	244744.23	-0.00017109225	244744	645240.6	-0.0001776693
0	0.63558626	0.63558626	-1.6769759e-10	0.05614425	0.05614425	0	147793.69	147793.64	-3.8615577e-05	645324	244497.1	-3.4218785e-06	244496.88	645323.6	-0.00022842195
0	0.6354687	0.6354686	-2.9347805e-10	0.05600275	0.05600275	0	147766.34	147766.31	-6.7706445e-05	645407.2	244249.14	-0.00014160517	244248.95	645407	-0.0002704946
0	0.6353511	0.6353511	-5.7582748e-11	0.05586146	0.05586146	0	147738.98	147738.97	-1.5182279e-05	645490.3	244001.52	3.6962236e-05	244001.36	645489.94	-0.0001214945
0	0.6352336	0.6352335	-2.8012812e-10	0.055719968	0.055719968	0	147711.64	147711.64	-6.277524e-05	645573.3	243753.9	-0.0002540049	243753.72	645573	-0.00014111318
0	0.63511485	0.63511485	-3.4862363e-10	0.055578675	0.055578675	0	147684.08	147684.05	-7.724664e-05	645656.9	243504.17	-0.00023753836	243503.95	645656.6	-0.00024826103
0	0.6349967	0.6349966	-1.4330309e-10	0.055437125	0.055437125	0	147656.58	147656.55	-3.1211377e-05	645740.06	243255.53	-0.000118982534	243255.34	645739.8	-7.392492e-05
0	0.63487697	0.63487697	-4.6514365e-10	0.05529581	0.05529581	0	147628.75	147628.73	-0.00011152953	645823.1	243004.92	-0.00040925035	243004.72	645822.8	-0.0003092991
0	0.63475883	0.6347588	-2.4131178e-10	0.055154327	0.055154327	0	147601.28	147601.25	-5.707811e-05	645906.9	242755.75	-0.00017243679	242755.53	645906.56	-0.00020482241
0	0.63463974	0.6346397	-4.1867323e-10	0.055012826	0.055012826	0	147573.56	147573.55	-0.00010104118	645990.2	242505.58	-0.00029057037	242505.36	645989.9	-0.00032008896
0	0.6345201	0.63452	-1.3781033e-10	0.05487153	0.05487153	0	147545.77	147545.73	-2.9328332e-05	646073.56	242254.7	-7.7511475e-05	242254.52	646073.3	-0.00011980119
0	0.6343998	0.63439965	-4.3014933e-10	0.054730047	0.054730047	0	147517.78	147517.75	-9.696591e-05	646156.94	242002.97	-0.00032621974	242002.75	646156.6	-0.0002805094
0	0.6342803	0.63428026	-3.0859382e-10	0.054588683	0.054588683	0	147489.98	147489.97	-7.156399e-05	646240.7	241751.97	-0.00026386883	241751.78	646240.3	-0.00016318877
0	0.6341582	0.634158	7.578089e-11	0.05444718	0.05444718	0	147461.58	147461.56	1.807299e-05	646325.1	241496.44	7.342088e-05	241496.23	646324.8	6.993288e-05
0	0.63403964	0.6340396	-5.209672e-11	0.0543059	0.0543059	0	147434.02	147434	-1.0196198e-05	646407.56	241248.06	7.303436e-06	241247.88	646407.25	-8.663209e-05
0	0.6339187	0.63391864	-2.058653e-10	0.054164402	0.054164402	0	147405.9	147405.89	-4.5304307e-05	646491.06	240995.27	-0.00019728897	240995.08	646490.8	-0.00010810257
0	0.63379735	0.63379735	-1.5968006e-10	0.054022897	0.054022897	0	147377.7	147377.69	-3.8109447e-05	646575.2	240741.39	-0.000113453665	240741.2	646574.8	-0.0001320312
0	0.6336764	0.6336764	6.90142e-11	0.053881615	0.053881615	0	147349.56	147349.53	1.8471002e-05	646658.6	240488.55	8.357166e-06	240488.34	646658.4	8.399415e-05
0	0.6335548	0.6335547	-1.7056614e-10	0.053740054	0.053740054	0	147321.3	147321.28	-4.1607e-05	646742.44	240234.6	-9.915024e-05	240234.39	646742.06	-0.0001751279
0	0.63343275	0.6334326	-3.9483257e-11	0.05359875	0.05359875	0	147292.9	147292.88	-1.0257956e-05	646826.2	239979.81	-5.277035e-06	239979.61	646825.94	-5.5976914e-05
0	0.6333103	0.63331014	-1.7961449e-10	0.053457268	0.053457268	0	147264.44	147264.42	-4.0768886e-05	646910.3	239724.28	-0.00016786826	239724.08	646909.94	-7.7002966e-05
0	0.63318825	0.63318807	-1.08011926e-10	0.05331579	0.05331579	0	147236.03	147236.02	-2.462098e-05	646994	239469.67	-4.0984312e-05	239469.5	646993.6	-9.633026e-05
0	0.6330656	0.6330655	-1.76946e-10	0.05317447	0.05317447	0	147207.55	147207.53	-4.3664844e-05	647077.8	239214.34	-9.5034586e-05	239214.16	647077.4	-0.00019923395
0	0.6329423	0.6329422	-3.4344622e-10	0.053032987	0.053032987	0	147178.88	147178.84	-7.428489e-05	647161.75	238957.72	-0.00025320958	238957.5	647161.4	-0.00024019921
0	0.63281876	0.6328186	-3.2620814e-10	0.052891623	0.052891623	0	147150.14	147150.12	-7.48194e-05	647245.94	238700.55	-0.0003126288	238700.39	647245.56	-0.00014729756
0	0.63269544	0.6326954	-1.959668e-10	0.05275012	0.05275012	0	147121.47	147121.44	-4.606905e-05	647329.9	238443.8	-0.000121959376	238443.66	647329.7	-0.00014241596
0	0.6325719	0.6325718	-3.443291e-10	0.05260882	0.05260882	0	147092.73	147092.72	-7.94808e-05	647413.6	238187.17	-0.00021835517	238187	647413.3	-0.00028838712
0	0.6324474	0.63244736	-2.6080504e-10	0.052467342	0.052467342	0	147063.8	147063.77	-6.499052e-05	647498.2	237928.42	-0.00017434386	237928.25	647497.8	-0.000232037
0	0.6323234	0.6323233	-3.9631792e-10	0.05232584	0.05232584	0	147034.94	147034.9	-9.1617745e-05	647581.75	237671.17	-0.00031107478	237671	647581.4	-0.00025977351
0	0.63219863	0.6321986	-1.7964931e-10	0.052184545	0.052184545	0	147005.97	147005.94	-3.9529943e-05	647666.06	237412.31	-0.00017883632	237412.1	647665.75	-8.3007166e-05
0	0.63207334	0.63207316	-3.419139e-10	0.052042995	0.052042995	0	146976.81	146976.78	-7.356629e-05	647750.6	237152.31	-0.00014813969	237152.14	647750.25	-0.00029490946
0	0.63194835	0.6319481	-5.6552944e-12	0.051901676	0.051901676	0	146947.72	146947.69	-2.1510757e-06	647834.75	236893	-2.8560415e-05	236892.84	647834.44	1.5845617e-05
0	0.63182265	0.6318225	-2.0676486e-10	0.051760197	0.051760197	0	146918.52	146918.48	-4.733448e-05	647919.3	236632.62	-0.00014813668	236632.44	647918.9	-0.00013180185
0	0.6316971	0.631697	-4.0434328e-10	0.051618718	0.051618718	0	146889.3	146889.28	-9.160131e-05	648003.3	236372.8	-0.0002900045	236372.66	648002.9	-0.00030123032
0	0.6315707	0.6315706	-1.12408104e-10	0.05147742	0.05147742	0	146859.92	146859.89	-2.7047272e-05	648087.75	236111.42	-0.00017392694	236111.23	648087.4	1.1921804e-05
0	0.63144445	0.6314443	-1.6923772e-10	0.05133593	0.05133593	0	146830.58	146830.56	-3.4640016e-05	648172.25	235850.17	-0.00014414624	235850	648171.94	-0.00010717356
0	0.631318	0.63131785	-1.8362882e-10	0.051194552	0.051194552	0	146801.16	146801.12	-4.377209e-05	648256.5	235588.78	-0.00013649829	235588.64	648256.2	-0.00013342797
0	0.63119096	0.63119084	-1.2678164e-10	0.051053073	0.051053073	0	146771.61	146771.58	-2.6088659e-05	648341.1	235326.38	-8.3552804e-05	235326.2	648340.75	-6.602252e-05
0	0.6310639	0.6310638	-2.327956e-10	0.05091175	0.05091175	0	146742.06	146742.06	-5.140437e-05	648425.6	235064.05	-0.00010081157	235063.88	648425.1	-0.00022334413
0	0.6309368	0.6309366	-2.7784892e-11	0.05077028	0.05077028	0	146712.53	146712.52	-3.8514586e-06	648509.7	234802.02	-5.7700774e-05	234801.83	648509.4	2.2272265e-05
0	0.63080853	0.63080835	-3.9610903e-10	0.050628807	0.050628807	0	146682.69	146682.67	-9.144921e-05	648594.8	234537.38	-0.00028307136	234537.2	648594.3	-0.00029121467
0	0.6306809	0.6306807	-7.9121674e-11	0.050487485	0.050487485	0	146653.03	146652.98	-2.1513451e-05	648679.1	234274.31	-5.7601323e-05	234274.16	648678.8	-6.255482e-05
0	0.63055253	0.6305525	-1.468946e-10	0.05034594	0.05034594	0	146623.17	146623.16	-3.6141868e-05	648763.7	234010.03	-6.957083e-05	234009.86	648763.4	-0.00014536822
0	0.6304234	0.63042325	-9.5718336e-11	0.050204627	0.050204627	0	146593.16	146593.14	-2.3944218e-05	648848.8	233744.25	-0.00017740233	233744.1	648848.4	1.5861071e-05
0	0.6302944	0.63029426	-3.0125301e-12	0.050063137	0.050063137	0	146563.14	146563.12	2.3095347e-06	648933.4	233478.94	-6.7214078e-06	233478.8	648933	8.202923e-06
0	0.63016605	0.6301658	-2.1286261e-11	0.049921665	0.049921665	0	146533.28	146533.25	-6.6849625e-06	649017.6	233214.89	-8.3384375e-06	233214.7	649017.3	-5.3863107e-05
0	0.6300359	0.6300357	-1.5690745e-10	0.04978036	0.04978036	0	146503.03	146502.98	-3.899837e-05	649102.44	232947.94	-8.3531755e-05	232947.8	649102.06	-0.0001339853
0	0.62990624	0.62990606	-2.554491e-10	0.049638864	0.049638864	0	146472.86	146472.83	-6.426686e-05	649187.7	232681.1	-0.00019069934	232680.92	649187.4	-0.00017232815
0	0.6297762	0.62977606	-1.00302135e-10	0.049497493	0.049497493	0	146442.66	146442.61	-2.2208507e-05	649272.25	232414.53	-0.0001267249	232414.38	649271.9	-2.6143214e-05
0	0.6296462	0.629646	9.29596e-11	0.049356014	0.049356014	0	146412.4	146412.38	2.2848846e-05	649357.1	232147.64	2.992807e-05	232147.52	649356.75	8.903263e-05
0	0.6295158	0.6295157	-5.765589e-11	0.049214687	0.049214687	0	146382.1	146382.06	-1.3082251e-05	649441.8	231880.52	-4.9889863e-05	231880.38	649441.4	-3.628374e-05
0	0.6293844	0.62938416	-2.804809e-10	0.049073216	0.049073216	0	146351.55	146351.48	-6.0976512e-05	649526.94	231611.36	-0.00021960356	231611.2	649526.56	-0.00016820575
0	0.62925327	0.62925303	-1.3435567e-10	0.04893174	0.04893174	0	146321.05	146321.02	-3.101047e-05	649612	231342.64	-2.9687577e-05	231342.5	649611.6	-0.00014240154
0	0.6291218	0.62912166	-2.9646083e-10	0.04879043	0.04879043	0	146290.48	146290.45	-6.7047265e-05	649696.75	231073.98	-0.00019956622	231073.81	649696.4	-0.00019806916
0	0.6289892	0.6289891	-1.3765739e-10	0.048648868	0.048648868	0	146259.64	146259.61	-3.310129e-05	649782.44	230802.67	-5.8941456e-05	230802.52	649781.94	-0.0001237974
0	0.6288575	0.62885725	-1.1841102e-10	0.048507564	0.048507564	0	146229.03	146228.98	-2.7751828e-05	649867.25	230533.38	-1.8172554e-05	230533.22	649866.9	-0.00013780844
0	0.62872475	0.6287245	-2.7237035e-10	0.04836608	0.04836608	0	146198.16	146198.11	-5.832907e-05	649952.6	230262.2	-0.00020413585	230262.03	649952.25	-0.00016809383
0	0.6285923	0.62859225	-2.2675478e-10	0.048224606	0.048224606	0	146167.38	146167.34	-5.4419714e-05	650037.44	229992.11	-0.00019375251	229991.98	650037	-0.0001367984
0	0.62845916	0.6284589	-1.9906045e-10	0.04808329	0.04808329	0	146136.4	146136.36	-4.546209e-05	650122.56	229720.31	-0.00019746817	229720.17	650122.2	-7.620353e-05
0	0.62832594	0.62832576	-2.5613064e-10	0.047941808	0.047941808	0	146105.42	146105.38	-6.13359e-05	650207.9	229448.56	-0.00019956277	229448.44	650207.56	-0.00016613185
0	0.62819165	0.62819135	-8.247203e-11	0.047800418	0.047800418	0	146074.17	146074.12	-2.027063e-05	650293.1	229175.2	-6.541623e-05	229175.08	650292.7	-6.0058817e-05
0	0.62805825	0.628058	-4.0082604e-10	0.047658958	0.047658958	0	146043.16	146043.11	-9.336354e-05	650378.6	228903.06	-0.00030712297	228902.92	650378.25	-0.00027257367
0	0.6279242	0.6279241	-3.004942e-10	0.047517624	0.047517624	0	146012.02	146011.97	-7.347707e-05	650463.7	228630.34	-0.00017559755	228630.2	650463.4	-0.0002597858
0	0.62779	0.6277898	-1.7407976e-10	0.047376156	0.047376156	0	145980.78	145980.75	-3.676663e-05	650548.6	228357.44	-0.00016742368	228357.33	650548.2	-8.218936e-05
0	0.6276549	0.6276547	-1.6901523e-10	0.047234684	0.047234684	0	145949.38	145949.33	-4.143351e-05	650634.06	228082.95	-0.00014189315	228082.8	650633.7	-0.00011089437
0	0.62751937	0.62751913	-1.0891244e-10	0.047093358	0.047093358	0	145917.86	145917.81	-2.6041864e-05	650719.75	227807.44	-4.412808e-05	227807.3	650719.4	-0.00012831288
0	0.62738395	0.6273838	-2.4927635e-10	0.04695181	0.04695181	0	145886.38	145886.34	-5.76389e-05	650805.44	227532.25	-0.00018289537	227532.12	650805	-0.00016965122
0	0.62724775	0.62724745	-2.479654e-10	0.046810493	0.046810493	0	145854.69	145854.64	-5.6467125e-05	650890.94	227256	-0.0002710314	227255.84	650890.5	-8.087156e-05
0	0.62711227	0.6271121	-1.1049828e-10	0.046669014	0.046669014	0	145823.2	145823.16	-2.7689779e-05	650976.25	226981.14	-4.9635288e-05	226980.97	650975.9	-0.0001214248
0	0.62697524	0.6269751	-3.4839437e-11	0.046527706	0.046527706	0	145791.34	145791.3	-6.033614e-06	651062	226703.53	-8.177449e-05	226703.4	651061.7	2.9437571e-05
0	0.62683916	0.6268389	-3.3589112e-10	0.046386234	0.046386234	0	145759.69	145759.62	-7.609834e-05	651147.4	226427.5	-0.00021979418	226427.36	651146.94	-0.00025525744
0	0.6267019	0.62670165	-2.1876545e-10	0.046244755	0.046244755	0	145727.8	145727.75	-4.869615e-05	651232.75	226150.14	-0.00024221679	226150.02	651232.25	-6.116452e-05
0	0.6265647	0.6265646	-1.0964874e-10	0.046103433	0.046103433	0	145695.89	145695.84	-2.528297e-05	651318.56	225872.14	-8.7914384e-05	225872.03	651318.2	-6.600081e-05
0	0.62642527	0.6264249	-5.0380436e-11	0.045961887	0.045961887	0	145663.42	145663.38	-9.400631e-06	651404.6	225590.81	-6.663091e-05	225590.72	651404.2	2.1490423e-05
0	0.62628883	0.62628853	-1.7483863e-10	0.045820557	0.045820557	0	145631.72	145631.64	-4.448007e-05	651490.1	225314.2	-0.00021346116	225314.12	651489.75	-4.527344e-05
0	0.6261505	0.62615025	-2.3873004e-10	0.0456791	0.0456791	0	145599.55	145599.48	-5.826233e-05	651576.06	225034.72	-0.0001873135	225034.58	651575.7	-0.00014590297
0	0.6260121	0.62601185	-3.1322372e-10	0.045537632	0.045537632	0	145567.38	145567.33	-7.383439e-05	651661.56	224755.48	-0.00021665197	224755.38	651661.1	-0.00023435328
0	0.6258733	0.6258731	-1.209711e-10	0.0453963	0.0453963	0	145535.11	145535.08	-2.6805412e-05	651747.2	224475.6	4.2488523e-06	224475.48	651746.7	-0.00017088607
0	0.62573403	0.6257338	-1.2260075e-10	0.04525483	0.04525483	0	145502.72	145502.66	-2.0913905e-05	651833	224194.61	-6.1538405e-05	224194.52	651832.6	-7.59019e-05