//mumax 3.10 [windows_amd64 go1.11.6(gc) CUDA-11.0]
//GPU info: NVIDIA GeForce RTX 3090(24575MB), CUDA Driver 12.0, cc=8.6, using cc=80 PTX
//(c) Arne Vansteenkiste, Dynamat LAB, Ghent University, Belgium
//This is free software without any warranty. See license.txt
//********************************************************************//
//  If you use mumax in any work or publication,                      //
//  we kindly ask you to cite the references in references.bib        //
//********************************************************************//
//output directory: r1;p0.1;a3.2e-07;l1.8000000000000002e-07;s2.out/
randSeed(2)
ThermSeed(2)
resolution := 2e-09
zResolution := 5e-09
a := 3.2e-07
gridSize := 320
gridDepth := 5
SetCellsize(resolution, resolution, zResolution)
SetGridsize(gridSize, gridSize, gridDepth)
SetPBC(16, 16, 0)
//resizing...
Msat = 700e3
Aex = 13e-12
alpha = 0.2
Bmax := 0.1
Bstep := Bmax / 500.0
TableAdd(B_ext)
TableAdd(m_full)
islandWidth := 8e-08
islandLength := 1.8000000000000002e-07
ellipseConstant := 9.000000000000001e-09
hIsland := rect(islandLength-2*ellipseConstant, islandWidth)
hIsland = hIsland.add(ellipse(ellipseConstant*2, islandWidth).transl(islandLength/2-ellipseConstant, 0, 0))
hIsland = hIsland.add(ellipse(ellipseConstant*2, islandWidth).transl(-islandLength/2+ellipseConstant, 0, 0))
hIsland = hIsland.add(rect(6.000000000000001e-09, 1.6242731729645161e-09).transl(4.7127321743774835e-08, -4e-08, 0))
hIsland = hIsland.sub(rect(6.000000000000001e-09, -8.149032182364149e-11).transl(-6.490182059576914e-08, -4e-08, 0))
hIsland = hIsland.sub(rect(6.000000000000001e-09, -9.855909018206524e-11).transl(-3.39953203429181e-08, -4e-08, 0))
hIsland = hIsland.add(rect(6.000000000000001e-09, 2.6242347435095575e-09).transl(7.173902920056793e-10, -4e-08, 0))
hIsland = hIsland.sub(rect(6.000000000000001e-09, -1.4013758381335015e-09).transl(-1.0556037960299378e-08, -4e-08, 0))
hIsland = hIsland.add(rect(6.000000000000001e-09, 3.174006616685912e-09).transl(3.754333411846452e-08, -4e-08, 0))
hIsland = hIsland.sub(rect(6.000000000000001e-09, -3.2092273993123983e-09).transl(-7.038197042410328e-08, -4e-08, 0))
hIsland = hIsland.sub(rect(6.000000000000001e-09, -3.3789527309861678e-09).transl(-6.113280010411127e-12, -4e-08, 0))
hIsland = hIsland.add(rect(6.000000000000001e-09, 5.517108805816902e-10).transl(-8.423367712458341e-08, -3.7328923616273096e-08, 0))
hIsland = hIsland.sub(rect(6.000000000000001e-09, -1.6451031538896464e-10).transl(8.915571035651541e-08, -1.6914827204864316e-08, 0))
hIsland = hIsland.add(rect(6.000000000000001e-09, 4.75913065664484e-09).transl(7.867933945122107e-08, -4e-08, 0))
hIsland = hIsland.add(rect(6.000000000000001e-09, 1.5165006370146806e-09).transl(-1.8826735268630337e-08, -4e-08, 0))
hIsland = hIsland.sub(rect(6.000000000000001e-09, -3.462627108629531e-10).transl(6.955572815603494e-08, -4e-08, 0))
hIsland = hIsland.add(rect(6.000000000000001e-09, 3.0048939049354297e-09).transl(2.118617578843476e-08, -4e-08, 0))
hIsland = hIsland.sub(rect(6.000000000000001e-09, -2.142050640776967e-09).transl(2.7946372144397204e-08, -4e-08, 0))
hIsland = hIsland.sub(rect(6.000000000000001e-09, -9.190910122571225e-10).transl(7.569220791895655e-08, -4e-08, 0))
hIsland = hIsland.sub(rect(6.000000000000001e-09, -2.414610460411688e-10).transl(5.97014029805168e-08, -4e-08, 0))
hIsland = hIsland.sub(rect(6.000000000000001e-09, -2.6913610817962644e-09).transl(-2.8195224940740732e-08, -4e-08, 0))
hIsland = hIsland.sub(rect(6.000000000000001e-09, -2.494890291625948e-09).transl(-6.373361292307127e-08, -4e-08, 0))
hIsland = hIsland.add(rect(6.000000000000001e-09, 1.466136342376248e-09).transl(1.1130138263581213e-08, -4e-08, 0))
hIsland = hIsland.add(rect(6.000000000000001e-09, 1.2257486604537973e-09).transl(-5.3833202368094024e-08, -4e-08, 0))
hIsland = hIsland.sub(rect(6.000000000000001e-09, -1.4416150635018606e-09).transl(-1.7943439459093943e-08, -4e-08, 0))
hIsland = hIsland.sub(rect(6.000000000000001e-09, -1.999460497535538e-09).transl(-1.1096498696265611e-08, -4e-08, 0))
hIsland = hIsland.sub(rect(6.000000000000001e-09, -1.3144331337285793e-09).transl(-6.341906131500722e-08, -4e-08, 0))
hIsland = hIsland.add(rect(6.000000000000001e-09, 2.154722610113005e-09).transl(8.257144340855419e-08, -3.938554365702898e-08, 0))
hIsland = hIsland.add(rect(6.000000000000001e-09, 3.720647387064611e-09).transl(-4.885780552551041e-08, -4e-08, 0))
hIsland = hIsland.sub(rect(6.000000000000001e-09, -2.3762426248195126e-09).transl(4.89854589824673e-08, -4e-08, 0))
hIsland = hIsland.add(rect(6.000000000000001e-09, 2.6011609284671532e-09).transl(8.042102393030789e-08, -4e-08, 0))
hIsland = hIsland.sub(rect(6.000000000000001e-09, -5.111746963343578e-10).transl(7.09957864166715e-08, -4e-08, 0))
hIsland = hIsland.add(rect(6.000000000000001e-09, 1.2325948105666947e-09).transl(7.22053046508401e-08, -4e-08, 0))
hIsland = hIsland.add(rect(6.000000000000001e-09, 1.227634711239771e-10).transl(9.398380364911486e-09, -4e-08, 0))
hIsland = hIsland.sub(rect(6.000000000000001e-09, -1.4866126757704384e-09).transl(5.3794717689645774e-08, -4e-08, 0))
hIsland = hIsland.sub(rect(6.000000000000001e-09, -2.3044995726142216e-09).transl(2.4542152225421015e-08, -4e-08, 0))
hIsland = hIsland.sub(rect(6.000000000000001e-09, -2.4471429663013955e-10).transl(3.931352547254346e-09, -4e-08, 0))
hIsland = hIsland.sub(rect(6.000000000000001e-09, -1.8340153652837926e-09).transl(5.96064940169242e-08, -4e-08, 0))
hIsland = hIsland.sub(rect(6.000000000000001e-09, -1.6427573408834299e-09).transl(-1.357459568177956e-08, -4e-08, 0))
hIsland = hIsland.sub(rect(6.000000000000001e-09, -2.130062566658821e-09).transl(-2.1107845566813577e-08, -4e-08, 0))
hIsland = hIsland.sub(rect(6.000000000000001e-09, -1.9919872599592112e-10).transl(2.703887951602836e-08, -4e-08, 0))
hIsland = hIsland.add(rect(6.000000000000001e-09, 3.269312976917876e-09).transl(2.3670211411077938e-08, -4e-08, 0))
hIsland = hIsland.sub(rect(6.000000000000001e-09, -2.512337152090927e-10).transl(-6.6794597992511e-08, -4e-08, 0))
hIsland = hIsland.add(rect(6.000000000000001e-09, 2.1215240989159856e-09).transl(1.2988216804399926e-08, -4e-08, 0))
hIsland = hIsland.sub(rect(6.000000000000001e-09, -2.497150053762745e-09).transl(-7.035080320049359e-08, -4e-08, 0))
hIsland = hIsland.sub(rect(6.000000000000001e-09, -2.791084215138522e-09).transl(3.7482025228398096e-08, -4e-08, 0))
hIsland = hIsland.sub(rect(6.000000000000001e-09, -9.944677499729209e-10).transl(5.351810765321604e-08, -4e-08, 0))
hIsland = hIsland.add(rect(6.000000000000001e-09, 2.5393906052534307e-09).transl(-5.0212432623788314e-08, -4e-08, 0))
hIsland = hIsland.sub(rect(6.000000000000001e-09, -6.659734818023202e-10).transl(1.1583794924852472e-08, -4e-08, 0))
hIsland = hIsland.sub(rect(6.000000000000001e-09, -1.4996753413132885e-09).transl(8.390376094558839e-09, -4e-08, 0))
hIsland = hIsland.sub(rect(6.000000000000001e-09, -3.0592454376715723e-09).transl(-7.490928033024953e-08, -4e-08, 0))
hIsland = hIsland.sub(rect(6.000000000000001e-09, -2.0800166118056604e-09).transl(7.780294483363035e-08, -4e-08, 0))
hIsland = hIsland.sub(rect(6.000000000000001e-09, -1.395388828187324e-09).transl(6.372781157592227e-08, -4e-08, 0))
hIsland = hIsland.add(rect(6.000000000000001e-09, 8.830957410472983e-10).transl(-4.9462972890823725e-08, -4e-08, 0))
hIsland = hIsland.sub(rect(6.000000000000001e-09, -5.545036689428944e-11).transl(7.357958939046029e-09, -4e-08, 0))
hIsland = hIsland.sub(rect(6.000000000000001e-09, -2.2441641791698703e-09).transl(-7.638715788230599e-08, -4e-08, 0))
hIsland = hIsland.sub(rect(6.000000000000001e-09, -6.281407316366993e-10).transl(-7.27356796974118e-08, -4e-08, 0))
hIsland = hIsland.sub(rect(6.000000000000001e-09, -1.890740569296652e-09).transl(6.763427964480199e-08, -4e-08, 0))
hIsland = hIsland.sub(rect(6.000000000000001e-09, -2.807968130467579e-09).transl(-5.001750721506212e-09, -4e-08, 0))
hIsland = hIsland.sub(rect(6.000000000000001e-09, -3.953234303973022e-09).transl(2.668174041629611e-08, -4e-08, 0))
hIsland = hIsland.sub(rect(6.000000000000001e-09, -1.4942410697558504e-09).transl(-1.802728308682976e-08, -4e-08, 0))
hIsland = hIsland.sub(rect(6.000000000000001e-09, -1.3312558118215195e-09).transl(-7.516761502622388e-08, -4e-08, 0))
hIsland = hIsland.add(rect(6.000000000000001e-09, 1.2724232973607482e-09).transl(-8.154239635861939e-08, -3.9927293475140586e-08, 0))
hIsland = hIsland.add(rect(6.000000000000001e-09, 1.1748133489837183e-09).transl(4.4642027426591206e-08, -4e-08, 0))
hIsland = hIsland.add(rect(6.000000000000001e-09, 2.899630178730799e-09).transl(5.6423414663970276e-08, -4e-08, 0))
hIsland = hIsland.add(rect(6.000000000000001e-09, 3.1521395510761204e-10).transl(7.001888746550316e-08, -4e-08, 0))
hIsland = hIsland.sub(rect(6.000000000000001e-09, -2.5371428608524805e-09).transl(-2.2608916728432414e-08, -4e-08, 0))
hIsland = hIsland.add(rect(6.000000000000001e-09, 1.8985519868780353e-09).transl(5.030562995549658e-08, -4e-08, 0))
hIsland = hIsland.sub(rect(6.000000000000001e-09, -2.863244499564265e-10).transl(-3.9228250819827406e-08, -4e-08, 0))
hIsland = hIsland.add(rect(6.000000000000001e-09, 4.143913711185253e-09).transl(3.933650210357238e-08, -4e-08, 0))
hIsland = hIsland.sub(rect(6.000000000000001e-09, -2.718930308980189e-09).transl(5.683978937878911e-08, -4e-08, 0))
hIsland = hIsland.sub(rect(6.000000000000001e-09, -1.0747309427026184e-09).transl(-6.374831046782943e-08, -4e-08, 0))
hIsland = hIsland.sub(rect(6.000000000000001e-09, -9.013247372613709e-10).transl(-3.667772599682635e-08, -4e-08, 0))
hIsland = hIsland.sub(rect(6.000000000000001e-09, -3.546977261091893e-09).transl(3.777461219852716e-08, -4e-08, 0))
hIsland = hIsland.sub(rect(6.000000000000001e-09, -1.5844075232612355e-09).transl(7.907737468797233e-08, -4e-08, 0))
hIsland = hIsland.add(rect(6.000000000000001e-09, 4.668890489474612e-10).transl(5.296993629880944e-08, -4e-08, 0))
hIsland = hIsland.add(rect(6.000000000000001e-09, 1.024558731926703e-10).transl(5.420690600566221e-08, -4e-08, 0))
hIsland = hIsland.add(rect(6.000000000000001e-09, 5.67895235657813e-10).transl(-6.475082391192864e-08, -4e-08, 0))
hIsland = hIsland.sub(rect(6.000000000000001e-09, -1.774674095043205e-09).transl(-8.189859718514563e-08, -3.9800123605205016e-08, 0))
hIsland = hIsland.add(rect(6.000000000000001e-09, 3.766179833673424e-09).transl(2.963683301138483e-08, -4e-08, 0))
hIsland = hIsland.add(rect(6.000000000000001e-09, 8.599708245785556e-09).transl(-3.978180142922751e-08, -4e-08, 0))
hIsland = hIsland.sub(rect(6.000000000000001e-09, -1.3190258532800156e-09).transl(-2.5796774380733637e-09, -4e-08, 0))
hIsland = hIsland.sub(rect(6.000000000000001e-09, -1.2452097061301418e-09).transl(8.192000383067274e-09, -4e-08, 0))
hIsland = hIsland.sub(rect(6.000000000000001e-09, -4.1202968210010646e-09).transl(-1.2019544470014716e-08, -4e-08, 0))
hIsland = hIsland.add(rect(6.000000000000001e-09, 9.564737840228798e-10).transl(7.104741551640328e-08, -4e-08, 0))
hIsland = hIsland.sub(rect(6.000000000000001e-09, -1.1515773834592068e-09).transl(5.721013339317607e-08, -4e-08, 0))
hIsland = hIsland.add(rect(6.000000000000001e-09, 4.1026501093625485e-09).transl(-4.0384600452408594e-08, -4e-08, 0))
hIsland = hIsland.add(rect(6.000000000000001e-09, 6.080305265518813e-11).transl(-1.3831390783510398e-08, -4e-08, 0))
hIsland = hIsland.add(rect(6.000000000000001e-09, 1.902160868772925e-09).transl(4.0934272317530704e-08, -4e-08, 0))
hIsland = hIsland.sub(rect(6.000000000000001e-09, -1.7978848920701554e-09).transl(8.577643630545946e-08, -3.390201020148375e-08, 0))
hIsland = hIsland.sub(rect(6.000000000000001e-09, -2.061064136290989e-09).transl(4.663435726666052e-08, -4e-08, 0))
hIsland = hIsland.add(rect(6.000000000000001e-09, 2.768061301001475e-10).transl(-6.842167862099061e-08, -4e-08, 0))
hIsland = hIsland.sub(rect(6.000000000000001e-09, -4.832181941622314e-10).transl(3.79702492530905e-08, -4e-08, 0))
hIsland = hIsland.add(rect(6.000000000000001e-09, 2.5856969518360247e-09).transl(-7.691816564111372e-08, -4e-08, 0))
hIsland = hIsland.add(rect(6.000000000000001e-09, 6.178132491595489e-10).transl(-7.913214508891472e-08, -4e-08, 0))
hIsland = hIsland.sub(rect(6.000000000000001e-09, -1.8545245827117649e-09).transl(8.42663107323506e-08, -3.727275884736008e-08, 0))
hIsland = hIsland.sub(rect(6.000000000000001e-09, -2.515472595815252e-09).transl(3.794879946766643e-09, -4e-08, 0))
hIsland = hIsland.sub(rect(6.000000000000001e-09, -1.4120629505518354e-09).transl(6.122953697278027e-08, -4e-08, 0))
hIsland = hIsland.sub(rect(6.000000000000001e-09, -1.4669897308030204e-10).transl(5.914272527954972e-08, -4e-08, 0))
hIsland = hIsland.add(rect(6.000000000000001e-09, 1.287609027200484e-09).transl(6.160051964024049e-08, -4e-08, 0))
hIsland = hIsland.add(rect(6.000000000000001e-09, 1.0281048625030212e-09).transl(3.9234786110610524e-08, -4e-08, 0))
hIsland = hIsland.sub(rect(6.000000000000001e-09, -2.0298237954610564e-09).transl(8.70155011420148e-08, -2.975247548922053e-08, 0))
hIsland = hIsland.sub(rect(6.000000000000001e-09, -1.1888068209542596e-09).transl(-3.037193795100256e-08, -4e-08, 0))
hIsland = hIsland.add(rect(6.000000000000001e-09, 9.450803576968597e-10).transl(-2.879042325260327e-08, 4e-08, 0))
hIsland = hIsland.sub(rect(6.000000000000001e-09, -2.7160574388655383e-09).transl(-1.0336939750128129e-08, 4e-08, 0))
hIsland = hIsland.add(rect(6.000000000000001e-09, 7.706237829935161e-10).transl(-2.6173699124748273e-08, 4e-08, 0))
hIsland = hIsland.add(rect(6.000000000000001e-09, 2.3781505424714875e-09).transl(-7.923632775091426e-08, 4e-08, 0))
hIsland = hIsland.sub(rect(6.000000000000001e-09, -5.810520053331411e-09).transl(-6.164281987849098e-08, 4e-08, 0))
hIsland = hIsland.sub(rect(6.000000000000001e-09, -1.3441462104508848e-10).transl(5.148861748638742e-09, 4e-08, 0))
hIsland = hIsland.sub(rect(6.000000000000001e-09, -5.03025825371044e-10).transl(3.9143822012575275e-08, 4e-08, 0))
hIsland = hIsland.sub(rect(6.000000000000001e-09, -2.0674662905317406e-09).transl(4.3980599621628166e-09, 4e-08, 0))
hIsland = hIsland.add(rect(6.000000000000001e-09, 5.355713660598044e-10).transl(-1.6786390488027708e-08, 4e-08, 0))
hIsland = hIsland.sub(rect(6.000000000000001e-09, -2.2631466717139706e-09).transl(1.660770340827043e-10, 4e-08, 0))
hIsland = hIsland.add(rect(6.000000000000001e-09, 8.034053294031222e-10).transl(-9.26101141732942e-09, 4e-08, 0))
hIsland = hIsland.sub(rect(6.000000000000001e-09, -1.8678097498895973e-09).transl(2.3518666162698783e-08, 4e-08, 0))
hIsland = hIsland.sub(rect(6.000000000000001e-09, -1.4638661959174458e-09).transl(-3.315114084838503e-08, 4e-08, 0))
hIsland = hIsland.sub(rect(6.000000000000001e-09, -3.0170840061797757e-11).transl(4.511862857085793e-08, 4e-08, 0))
hIsland = hIsland.sub(rect(6.000000000000001e-09, -2.7040016949612027e-09).transl(3.058187841899206e-08, 4e-08, 0))
hIsland = hIsland.add(rect(6.000000000000001e-09, 9.794252495487092e-10).transl(-3.082031575839083e-08, 4e-08, 0))
hIsland = hIsland.add(rect(6.000000000000001e-09, 1.189953501936844e-09).transl(8.591750308000418e-08, 3.350125509589878e-08, 0))
hIsland = hIsland.add(rect(6.000000000000001e-09, 2.953328861634469e-09).transl(-8.090560430161609e-08, 4e-08, 0))
hIsland = hIsland.sub(rect(6.000000000000001e-09, -2.911162914018505e-09).transl(-8.179082177852607e-08, 3.9845281249094414e-08, 0))
hIsland = hIsland.sub(rect(6.000000000000001e-09, -2.0285363183045463e-10).transl(5.758425151887688e-08, 4e-08, 0))
hIsland = hIsland.add(rect(6.000000000000001e-09, 2.6256656155078787e-09).transl(-8.47464431797779e-10, 4e-08, 0))
hIsland = hIsland.add(rect(6.000000000000001e-09, 1.4764702679237642e-09).transl(7.818132651873981e-08, 4e-08, 0))
hIsland = hIsland.sub(rect(6.000000000000001e-09, -1.7690213267147836e-11).transl(6.2278578746077e-08, 4e-08, 0))
hIsland = hIsland.add(rect(6.000000000000001e-09, 4.77128209600501e-10).transl(7.051846994275948e-08, 4e-08, 0))
hIsland = hIsland.sub(rect(6.000000000000001e-09, -2.1932577029964606e-09).transl(-1.956546694371313e-08, 4e-08, 0))
hIsland = hIsland.add(rect(6.000000000000001e-09, 3.3513056760445826e-09).transl(2.5934500201242256e-09, 4e-08, 0))
hIsland = hIsland.sub(rect(6.000000000000001e-09, -5.537318644338638e-10).transl(8.646302340698366e-08, 3.178799377503951e-08, 0))
hIsland = hIsland.add(rect(6.000000000000001e-09, 2.4333520832504867e-09).transl(5.325730513354224e-08, 4e-08, 0))
hIsland = hIsland.add(rect(6.000000000000001e-09, 1.6940214423113162e-09).transl(8.944759629392328e-08, 1.3797918508180809e-08, 0))
hIsland = hIsland.sub(rect(6.000000000000001e-09, -1.0965025989943917e-09).transl(6.225606722799456e-08, 4e-08, 0))
hIsland = hIsland.add(rect(6.000000000000001e-09, 1.1520157030823562e-09).transl(2.596710631681209e-08, 4e-08, 0))
hIsland = hIsland.add(rect(6.000000000000001e-09, 1.714700426341335e-09).transl(4.440849132059111e-08, 4e-08, 0))
hIsland = hIsland.add(rect(6.000000000000001e-09, 2.873109411559825e-09).transl(-3.2667893994118856e-08, 4e-08, 0))
hIsland = hIsland.add(rect(6.000000000000001e-09, 2.1278809727989446e-09).transl(1.5358306373204142e-10, 4e-08, 0))
hIsland = hIsland.sub(rect(6.000000000000001e-09, -1.4226163412189479e-09).transl(-5.9513217685427344e-08, 4e-08, 0))
hIsland = hIsland.add(rect(6.000000000000001e-09, 2.4496858829755876e-10).transl(6.476288708211746e-08, 4e-08, 0))
hIsland = hIsland.add(rect(6.000000000000001e-09, 2.4414699557505706e-09).transl(4.5144177974523745e-08, 4e-08, 0))
hIsland = hIsland.add(rect(6.000000000000001e-09, 1.6246090696348835e-09).transl(6.543684908486292e-08, 4e-08, 0))
hIsland = hIsland.sub(rect(6.000000000000001e-09, -2.4893777128249284e-09).transl(-8.553433399621442e-08, 3.455246580278072e-08, 0))
hIsland = hIsland.sub(rect(6.000000000000001e-09, -1.8607550017109182e-09).transl(1.6224780565238384e-08, 4e-08, 0))
hIsland = hIsland.add(rect(6.000000000000001e-09, 9.63377956152955e-10).transl(4.584653741240903e-08, 4e-08, 0))
hIsland = hIsland.sub(rect(6.000000000000001e-09, -2.0290826948115683e-10).transl(2.7550914700991284e-08, 4e-08, 0))
hIsland = hIsland.add(rect(6.000000000000001e-09, 2.651468047787876e-10).transl(-1.3532582609603708e-08, 4e-08, 0))
hIsland = hIsland.add(rect(6.000000000000001e-09, 2.0528813902796952e-09).transl(-8.226451444939096e-08, 3.9603218027939644e-08, 0))
hIsland = hIsland.add(rect(6.000000000000001e-09, 1.0647817380880936e-09).transl(4.164409321032346e-08, 4e-08, 0))
hIsland = hIsland.add(rect(6.000000000000001e-09, 1.8072378113531504e-10).transl(7.31847979556442e-08, 4e-08, 0))
hIsland = hIsland.sub(rect(6.000000000000001e-09, -2.7233460606914347e-10).transl(4.844729161055848e-08, 4e-08, 0))
hIsland = hIsland.add(rect(6.000000000000001e-09, 4.977984133374101e-12).transl(2.9470664490187084e-08, 4e-08, 0))
hIsland = hIsland.add(rect(6.000000000000001e-09, 1.3975901850013667e-09).transl(3.8212556550316356e-08, 4e-08, 0))
hIsland = hIsland.add(rect(6.000000000000001e-09, 1.5061039197745551e-09).transl(-3.133702730852001e-08, 4e-08, 0))
hIsland = hIsland.sub(rect(6.000000000000001e-09, -3.05925233765348e-09).transl(6.370350516126054e-08, 4e-08, 0))
hIsland = hIsland.sub(rect(6.000000000000001e-09, -1.492481099334542e-09).transl(-4.7698508967981177e-08, 4e-08, 0))
hIsland = hIsland.add(rect(6.000000000000001e-09, 8.075781852247249e-10).transl(-8.683674045064169e-08, 3.044767571233183e-08, 0))
hIsland = hIsland.add(rect(6.000000000000001e-09, 2.178427073758567e-09).transl(4.8448473526576805e-08, 4e-08, 0))
hIsland = hIsland.add(rect(6.000000000000001e-09, 5.96540565675543e-10).transl(-2.2629679753507697e-08, 4e-08, 0))
hIsland = hIsland.sub(rect(6.000000000000001e-09, -1.1441366375913377e-10).transl(3.9920338103687697e-08, 4e-08, 0))
hIsland = hIsland.add(rect(6.000000000000001e-09, 8.067865539509628e-11).transl(-5.999772069550889e-09, 4e-08, 0))
hIsland = hIsland.sub(rect(6.000000000000001e-09, -6.035915098785946e-10).transl(5.571919759963331e-08, 4e-08, 0))
hIsland = hIsland.add(rect(6.000000000000001e-09, 1.179387037900139e-09).transl(-6.750038488091544e-08, 4e-08, 0))
hIsland = hIsland.add(rect(6.000000000000001e-09, 1.6392623398158661e-09).transl(8.936143775845913e-08, 1.4798303947805516e-08, 0))
hIsland = hIsland.sub(rect(6.000000000000001e-09, -4.651346251578472e-10).transl(2.0686280842807815e-08, 4e-08, 0))
hIsland = hIsland.sub(rect(6.000000000000001e-09, -1.133722868373192e-09).transl(-8.192450206415389e-08, 3.978840228896665e-08, 0))
hIsland = hIsland.sub(rect(6.000000000000001e-09, -1.5167126177363796e-09).transl(-5.006213875700622e-08, 4e-08, 0))
hIsland = hIsland.add(rect(6.000000000000001e-09, 7.007302696938897e-10).transl(-6.201025819391806e-08, 4e-08, 0))
hIsland = hIsland.add(rect(6.000000000000001e-09, 1.15358355822951e-09).transl(2.7763853558584856e-08, 4e-08, 0))
hIsland = hIsland.sub(rect(6.000000000000001e-09, -3.026754091511555e-10).transl(-1.2465885902518046e-08, 4e-08, 0))
hIsland = hIsland.add(rect(6.000000000000001e-09, 1.993447196454091e-09).transl(5.544433532346047e-08, 4e-08, 0))
hIsland = hIsland.add(rect(6.000000000000001e-09, 4.6900692773870186e-09).transl(-7.590887422980987e-08, 4e-08, 0))
hIsland = hIsland.add(rect(6.000000000000001e-09, 2.2754377819819296e-10).transl(-2.8730202989956375e-09, 4e-08, 0))
hIsland = hIsland.sub(rect(6.000000000000001e-09, -1.9915921483526438e-09).transl(7.032229145892151e-09, 4e-08, 0))
hIsland = hIsland.add(rect(6.000000000000001e-09, 8.752732836214321e-10).transl(-7.522264739592632e-08, 4e-08, 0))
hIsland = hIsland.sub(rect(6.000000000000001e-09, -1.5816793710792738e-09).transl(3.569421934251098e-08, 4e-08, 0))
hIsland = hIsland.sub(rect(6.000000000000001e-09, -2.3322308525854103e-09).transl(7.867867652070392e-08, 4e-08, 0))
hIsland = hIsland.sub(rect(6.000000000000001e-09, -2.529712933165412e-09).transl(-5.140217207585335e-08, 4e-08, 0))
hIsland = hIsland.add(rect(6.000000000000001e-09, 1.2449073879739377e-09).transl(5.152277665297546e-08, 4e-08, 0))
hIsland = hIsland.sub(rect(6.000000000000001e-09, -1.2345986333602764e-09).transl(6.33578342756108e-08, 4e-08, 0))
hIsland = hIsland.add(rect(6.000000000000001e-09, 1.0760928989533213e-09).transl(1.843832458855234e-08, 4e-08, 0))
hIsland = hIsland.add(rect(6.000000000000001e-09, 1.7460402827899496e-09).transl(-1.3693003610820697e-08, 4e-08, 0))
hIsland = hIsland.sub(rect(6.000000000000001e-09, -1.9690377783110635e-09).transl(-1.6814018497780742e-09, 4e-08, 0))
hIsland = hIsland.add(rect(6.000000000000001e-09, 2.606185843208325e-10).transl(-1.2197376088039586e-08, 4e-08, 0))
hIsland = hIsland.add(rect(6.000000000000001e-09, 1.9554292910094826e-09).transl(1.1356615172345496e-08, 4e-08, 0))
hIsland = hIsland.add(rect(6.000000000000001e-09, 6.529632980762896e-10).transl(9.535030817844657e-09, 4e-08, 0))
hIsland = hIsland.add(rect(6.000000000000001e-09, 1.9599618118162354e-09).transl(-2.6495203169377997e-08, 4e-08, 0))
hIsland = hIsland.add(rect(6.000000000000001e-09, 3.2590178712310315e-10).transl(-1.8488901763208197e-08, 4e-08, 0))
hIsland = hIsland.add(rect(6.000000000000001e-09, 1.0306393929326158e-10).transl(-2.578723377460958e-08, 4e-08, 0))
hIsland = hIsland.add(rect(6.000000000000001e-09, 1.2904690665786333e-09).transl(5.279679824293929e-10, 4e-08, 0))
hIsland = hIsland.sub(rect(6.000000000000001e-09, -8.599151196195638e-10).transl(-1.9171323231775783e-08, 4e-08, 0))
hIsland = hIsland.add(rect(6.000000000000001e-09, 2.0252726769759236e-09).transl(-7.822064217279653e-08, 4e-08, 0))
hIsland = hIsland.sub(rect(6.000000000000001e-09, -2.321494082503988e-09).transl(-3.90677372721961e-08, 4e-08, 0))
hIsland = hIsland.add(rect(6.000000000000001e-09, 2.5808955248693736e-09).transl(-7.412055228802108e-08, 4e-08, 0))
hIsland = hIsland.add(rect(6.000000000000001e-09, 2.0250724168201067e-09).transl(1.6772616455178166e-08, 4e-08, 0))
hIsland = hIsland.sub(rect(6.000000000000001e-09, -2.586081281117036e-09).transl(2.2961785374502904e-08, 4e-08, 0))
hIsland = hIsland.sub(rect(6.000000000000001e-09, -6.620001533967064e-10).transl(3.027577080070153e-08, 4e-08, 0))
hIsland = hIsland.sub(rect(6.000000000000001e-09, -1.724881446148995e-09).transl(6.1368770699205195e-09, 4e-08, 0))
hIsland = hIsland.add(rect(6.000000000000001e-09, 8.305786169265757e-10).transl(5.6991764170520864e-08, 4e-08, 0))
hIsland = hIsland.sub(rect(6.000000000000001e-09, -9.354994406535363e-10).transl(-6.673143064773204e-08, 4e-08, 0))
hIsland = hIsland.add(rect(6.000000000000001e-09, 2.1043669109403294e-10).transl(-5.8583323164831516e-08, 4e-08, 0))
hIsland = hIsland.add(rect(6.000000000000001e-09, 2.7549516240470093e-09).transl(-5.379044245223407e-08, 4e-08, 0))
hIsland = hIsland.sub(rect(6.000000000000001e-09, -1.7383187749438192e-09).transl(-2.0092156303611273e-08, 4e-08, 0))
hIsland = hIsland.sub(rect(6.000000000000001e-09, -9.861076382282342e-10).transl(-2.3972791155951347e-08, 4e-08, 0))
vIsland := hIsland.rotz(pi / 2)
vIslands := Universe().Inverse()
hIslands := Universe().Inverse()
hIslands = hIslands.add(hIsland.transl(-a/2, a, 0))
hIslands = hIslands.add(hIsland.transl(-a/2, -a, 0))
hIslands = hIslands.add(hIsland.transl(a/2, a, 0))
hIslands = hIslands.add(hIsland.transl(a/2, -a, 0))
hIslands = hIslands.add(hIsland.transl(-a/2, 0, 0))
hIslands = hIslands.add(hIsland.transl(a/2, 0, 0))
vIslands = vIslands.add(vIsland.transl(-a, a/2, 0))
vIslands = vIslands.add(vIsland.transl(a, a/2, 0))
vIslands = vIslands.add(vIsland.transl(-a, -a/2, 0))
vIslands = vIslands.add(vIsland.transl(a, -a/2, 0))
vIslands = vIslands.add(vIsland.transl(0, a/2, 0))
vIslands = vIslands.add(vIsland.transl(0, -a/2, 0))
DefRegion(1, hIslands)
DefRegion(2, vIslands)
TableAdd(m_full.Region(1))
TableAdd(m_full.Region(2))
setgeom(hIslands.add(vIslands))
save(m)
r2o2 := sqrt(2) / 2
m = RandomMagSeed(4)
B_ext = vector(Bmax*r2o2, Bmax*r2o2, 0)
relax()
minimize()
for B := Bmax; B >= -Bmax; B -= Bstep {
	B_ext = vector(B*r2o2, B*r2o2, 0)
	minimize()
	tablesave()
}
//********************************************************************//
//Please cite the following references, relevant for your simulation. //
//See bibtex file in output folder for justification.                 //
//********************************************************************//
//   * Vansteenkiste et al., AIP Adv. 4, 107133 (2014).
//   * Exl et al., J. Appl. Phys. 115, 17D118 (2014).
