# t (s)	mx ()	my ()	mz ()	B_extx (T)	B_exty (T)	B_extz (T)	m_fullx (A/m)	m_fully (A/m)	m_fullz (A/m)	m_full.region1x (A/m)	m_full.region1y (A/m)	m_full.region1z (A/m)	m_full.region2x (A/m)	m_full.region2y (A/m)	m_full.region2z (A/m)
0	0.65136516	0.65136945	-2.9223932e-10	0.07071066	0.07071066	0	158713.08	158714.14	-7.097222e-05	619118.44	292796.5	-0.00025536263	292792.72	619120.6	-0.00011491318
0	0.65115535	0.651155	-8.523647e-11	0.0703572	0.0703572	0	158661.95	158661.88	-3.111111e-05	619288.8	292328.34	-0.00015321757	292328.6	619288.6	-6.384066e-05
0	0.6509365	0.6509358	-7.305983e-11	0.07000352	0.07000352	0	158608.62	158608.48	-2.3680555e-05	619464	291846.53	-0.00021705822	291847.06	619463.6	6.384066e-05
0	0.6507203	0.6507196	-3.6529915e-11	0.06965008	0.06965008	0	158555.94	158555.78	-1.1111111e-05	619638.56	291369.25	0	291369.78	619638.2	-3.192033e-05
0	0.65050024	0.6504996	-1.5829629e-10	0.06929639	0.06929639	0	158502.33	158502.17	-3.3333334e-05	619813.25	290886.56	-0.000102145044	290887.1	619812.94	-0.00011491318
0	0.6502808	0.6502802	-1.2176639e-10	0.068942994	0.068942994	0	158448.88	158448.69	-3.3333334e-05	619988.8	290403.72	-7.022472e-05	290404.3	619988.44	-9.576098e-05
0	0.6500592	0.65005857	-3.2876923e-10	0.06858931	0.06858931	0	158394.88	158394.7	-8.291667e-05	620163.3	289919	-0.000102145044	289919.56	620162.94	-0.00031920327
0	0.6498367	0.6498361	7.305983e-11	0.068235844	0.068235844	0	158340.66	158340.47	0	620339.7	289431.22	5.1072522e-05	289431.78	620339.2	3.511236e-05
0	0.6496129	0.6496122	-2.4353278e-10	0.06788218	0.06788218	0	158286.11	158285.94	-6.4444444e-05	620515.4	288942.06	-0.00024259448	288942.6	620515	-0.0001659857
0	0.64938784	0.6493871	-7.305983e-11	0.06752872	0.06752872	0	158231.28	158231.12	-2.2222222e-05	620691.6	288450.8	1.2768131e-05	288451.34	620691.25	-0.0001659857
0	0.6491613	0.6491606	-3.0441596e-10	0.067175046	0.067175046	0	158176.1	158175.92	-7.7777775e-05	620867.25	287957.97	-0.00022982636	287958.56	620866.9	-0.00025217058
0	0.6489344	0.64893377	-8.523647e-11	0.066821575	0.066821575	0	158120.8	158120.66	-2.2222222e-05	621043.94	287463.72	3.192033e-05	287464.34	621043.56	-0.00014364148
0	0.6487053	0.6487045	-6.0883194e-11	0.06646811	0.06646811	0	158064.97	158064.78	-2e-05	621220.75	286966	-0.00011491318	286966.6	621220.4	-3.192033e-05
0	0.6484755	0.6484748	2.800627e-10	0.066114426	0.066114426	0	158008.97	158008.81	6e-05	621397.94	286467.12	0.00020429009	286467.66	621397.56	0.00014683351
0	0.6482435	0.6482428	-1.7047294e-10	0.06576098	0.06576098	0	157952.42	157952.27	-5.6597222e-05	621574.94	285965.38	-0.00017875383	285965.9	621574.5	-0.00014044944
0	0.64801174	0.6480111	-3.0441596e-10	0.06540731	0.06540731	0	157896	157895.81	-7.7777775e-05	621752	285463.94	-7.660878e-05	285464.53	621751.6	-0.00025536263
0	0.64777875	0.64777803	-5.601254e-10	0.0650539	0.0650539	0	157839.2	157839.03	-0.00013777778	621930	284959.66	-0.00039581207	284960.25	621929.56	-0.00035750767
0	0.64754206	0.64754146	-3.4094588e-10	0.06470023	0.06470023	0	157781.53	157781.36	-9.111111e-05	622108.7	284449.62	2.5536261e-05	284450.2	622108.3	-0.00047242083
0	0.6473079	0.6473072	-4.38359e-10	0.06434677	0.06434677	0	157724.47	157724.3	-0.000112430556	622285.9	283944.62	-0.00028089888	283945.2	622285.5	-0.00028089888
0	0.6470705	0.64706975	-1.4611966e-10	0.063993104	0.063993104	0	157666.66	157666.48	-3.5555557e-05	622463.6	283434.53	-3.830439e-05	283435.16	622463.1	-0.00015960164
0	0.6468318	0.6468311	-2.0700285e-10	0.06363963	0.06363963	0	157608.47	157608.31	-4.6666668e-05	622642.44	282921.53	-0.00015321757	282922.1	622641.94	-0.00010852911
0	0.6465913	0.64659053	-1.2176639e-10	0.06328596	0.06328596	0	157549.88	157549.69	-1.7777778e-05	622820.44	282406.72	-0.00015321757	282407.34	622820	-5.745659e-05
0	0.64635026	0.6463495	-1.7047294e-10	0.06293249	0.0629325	0	157491.12	157490.97	-4e-05	622999.7	281889.97	-0.00011491318	281890.53	622999.3	-0.00012768131
0	0.6461088	0.6461081	-3.2876923e-10	0.06257903	0.06257903	0	157432.3	157432.12	-8.4513886e-05	623178.75	281372.97	-0.00015321757	281373.6	623178.25	-0.00025536263
0	0.6458636	0.64586294	-2.9223932e-10	0.062225346	0.062225346	0	157372.58	157372.38	-6.305556e-05	623357.94	280850.5	-0.00019152196	280851.16	623357.56	-0.00019152196
0	0.6456204	0.64561963	-2.4353276e-11	0.061871894	0.061871886	0	157313.31	157313.11	-2.013889e-06	623537	280330.97	5.1072522e-05	280331.56	623536.6	-3.830439e-05
0	0.64537376	0.64537305	-1.7047294e-10	0.061518233	0.061518233	0	157253.23	157253.02	-4.4444445e-05	623716.94	279805.8	-4.468846e-05	279806.4	623716.5	-0.0001659857
0	0.6451232	0.6451224	-5.601254e-10	0.061164822	0.061164822	0	157192.14	157191.95	-0.00013777778	623897.25	279274.56	-0.00039581207	279275.16	623896.8	-0.00034473953
0	0.644877	0.64487624	-2.0700285e-10	0.060811155	0.060811155	0	157132.17	157131.97	-4.6666668e-05	624076.6	278750.56	-0.00012768131	278751.12	624076.25	-0.0001564096
0	0.64462644	0.6446257	-8.523647e-11	0.060457677	0.060457677	0	157071.11	157070.9	-2.2222222e-05	624256	278220.34	-0.00014044944	278220.97	624255.56	-1.2768131e-05
0	0.64437515	0.6443744	-4.6271226e-10	0.060104027	0.060104027	0	157009.88	157009.69	-0.000100833335	624436.9	277687.7	-0.00028089888	277688.3	624436.5	-0.0002745148
0	0.6441224	0.64412165	-9.7413105e-11	0.059750546	0.059750546	0	156948.31	156948.12	-1.5555555e-05	624616.5	277154.22	3.830439e-05	277154.84	624616.06	-0.00012129724
0	0.64386535	0.6438647	-6.0883194e-11	0.059396885	0.059396885	0	156885.67	156885.5	-6.6666666e-06	624798.4	276612.62	-3.830439e-05	276613.25	624797.94	-6.3840653e-06
0	0.6436113	0.64361054	-2.3135613e-10	0.059043407	0.059043407	0	156823.77	156823.56	-6e-05	624978.7	276076.53	-0.000102145044	276077.2	624978.2	-0.00019152196
0	0.6433556	0.6433548	-2.191795e-10	0.058689922	0.058689922	0	156761.45	156761.28	-5.3333333e-05	625159.6	275537.62	-0.00015321757	275538.25	625159.2	-0.00018513789
0	0.6430969	0.64309615	-1.8264958e-10	0.05833626	0.05833626	0	156698.42	156698.23	-4e-05	625340.9	274994.12	-2.5536261e-05	274994.78	625340.44	-0.00018194587
0	0.6428368	0.64283603	-1.0958975e-10	0.057982802	0.057982802	0	156635.05	156634.86	-2e-05	625522.7	274448.16	-0.00015321757	274448.84	625522.25	-2.5536261e-05
0	0.64257354	0.64257276	-1.8264958e-10	0.05762915	0.057629146	0	156570.89	156570.7	-4.2222222e-05	625703.9	273898.4	-0.00015321757	273899.1	625703.44	-8.299285e-05
0	0.64231277	0.642312	-1.3394302e-10	0.057275664	0.057275664	0	156507.36	156507.17	-1.5555555e-05	625885.9	273351.38	3.192033e-05	273352.03	625885.4	-0.00020429009
0	0.6420476	0.64204687	-4.38359e-10	0.056922078	0.056922078	0	156442.75	156442.56	-0.00011291666	626068	272798.03	-0.00029366702	272798.72	626067.56	-0.00030005106
0	0.6417827	0.64178187	-3.6529915e-10	0.056568593	0.056568593	0	156378.2	156378	-8.666667e-05	626249.75	272245.38	-0.00022982636	272246.03	626249.25	-0.00023621041
0	0.64151627	0.6415155	-2.4353276e-11	0.05621495	0.056214947	0	156313.3	156313.08	-2.4305555e-06	626431.8	271690.3	-5.1072522e-05	271691.03	626431.3	6.3840653e-06
0	0.6412471	0.6412463	-1.8264958e-10	0.05586146	0.05586146	0	156247.69	156247.48	-5.6111112e-05	626613.6	271131.66	-0.00019152196	271132.34	626613.2	-6.384066e-05
0	0.6409776	0.64097685	-2.3135613e-10	0.055507813	0.055507813	0	156182.05	156181.83	-5.111111e-05	626796.7	270571.3	-0.00014044944	270571.97	626796.25	-0.00015321757
0	0.64070684	0.64070606	-2.3135613e-10	0.055154327	0.055154327	0	156116.05	156115.86	-5.3333333e-05	626979.06	270009.8	-0.00018194587	270010.44	626978.7	-0.00022982636
0	0.6404313	0.6404305	-3.531225e-10	0.05480083	0.05480083	0	156048.92	156048.72	-7.7777775e-05	627162.4	269440.72	-0.00015321757	269441.38	627162	-0.00029366702
0	0.6401581	0.64015734	-8.523647e-11	0.05444718	0.05444718	0	155982.36	155982.16	-3.3333334e-05	627345.5	268875.22	-0.00014044944	268875.9	627345	-8.299285e-05
0	0.6398833	0.6398824	-2.6788605e-10	0.054093707	0.054093707	0	155915.38	155915.17	-6.666667e-05	627528.25	268307.72	-0.00019152196	268308.4	627527.6	-0.00020429009
0	0.6396032	0.63960236	-2.6788605e-10	0.053740066	0.053740066	0	155847.12	155846.92	-6.888889e-05	627712.2	267731.53	-0.00017875383	267732.22	627711.75	-0.00019790603
0	0.63932747	0.6393266	-3.6529915e-11	0.05338656	0.05338656	0	155779.95	155779.75	-2.2222222e-05	627894.6	267163.06	-7.660878e-05	267163.75	627894.1	-7.980082e-05
0	0.63904697	0.63904613	-2.4353278e-10	0.053032998	0.053032998	0	155711.61	155711.42	-6.666667e-05	628078.4	266586.66	-0.00020429009	266587.38	628078	-0.00016917773
0	0.6387646	0.6387638	-2.9223932e-10	0.05267951	0.05267951	0	155642.8	155642.61	-7.555555e-05	628261.94	266007.75	-0.00020429009	266008.44	628261.5	-0.00024897855
0	0.6384784	0.63847756	0	0.05232586	0.05232586	0	155573.05	155572.86	1.625e-05	628446.4	265422.62	1.2768131e-05	265423.3	628445.94	1.2768131e-05
0	0.63819635	0.6381955	-3.774758e-10	0.051972378	0.051972378	0	155504.33	155504.12	-9.7777774e-05	628630.1	264844	-0.00030643513	264844.75	628629.6	-0.00028089888
0	0.6379098	0.63790905	-1.8264958e-10	0.051618747	0.051618747	0	155434.53	155434.31	-4.6666668e-05	628814	264259	-0.00014044944	264259.7	628813.6	-7.3416755e-05
0	0.6376217	0.6376208	-9.7413105e-11	0.051265243	0.051265243	0	155364.3	155364.11	-3.111111e-05	628998.1	263671.6	-5.1072522e-05	263672.3	628997.6	-7.660878e-05
0	0.63732964	0.6373288	-2.191795e-10	0.050911736	0.050911736	0	155293.16	155292.94	-6e-05	629183.44	263077.34	-0.00019152196	263078.03	629182.9	-0.00016917773
0	0.6370407	0.6370398	-1.4611966e-10	0.050558098	0.050558098	0	155222.75	155222.53	-2.888889e-05	629366.8	262489.38	-7.660878e-05	262490.1	629366.3	-0.00012129724
0	0.6367475	0.6367466	-1.3394302e-10	0.050204612	0.05020461	0	155151.31	155151.08	-2.6388889e-05	629551.1	261894.64	-0.00017875383	261895.33	629550.6	6.3840653e-06
0	0.6364528	0.6364519	-8.523647e-11	0.049850978	0.049850978	0	155079.52	155079.3	-1.5555555e-05	629736.4	261296.88	-7.660878e-05	261297.61	629735.8	-8.937692e-05
0	0.63615674	0.63615584	-2.0700285e-10	0.04949747	0.04949747	0	155007.34	155007.16	-5.5555556e-05	629920.94	260697.75	-8.937692e-05	260698.45	629920.4	-0.00017236976
0	0.63585895	0.63585806	-2.4353276e-11	0.049143925	0.049143925	0	154934.78	154934.6	-1.4305556e-05	630105.75	260096	-7.660878e-05	260096.7	630105.25	-3.830439e-05
0	0.6355596	0.6355587	-2.4353278e-10	0.048790425	0.048790425	0	154861.88	154861.66	-4.2222222e-05	630290.75	259492.06	-0.00017875383	259492.81	630290.2	-0.00011172114
0	0.63525814	0.6352573	-1.8264958e-10	0.048436783	0.048436783	0	154788.42	154788.2	-3.5555557e-05	630475.94	258884.75	-0.00012768131	258885.48	630475.4	-0.00015960164
0	0.6349539	0.634953	-9.7413105e-11	0.04808329	0.04808329	0	154714.28	154714.06	-2.777778e-07	630660.9	258273.88	3.830439e-05	258274.61	630660.4	-5.745659e-05
0	0.6346503	0.63464934	-3.6529915e-11	0.04772967	0.04772967	0	154640.3	154640.06	-8.888889e-06	630845.56	257664.08	-6.384066e-05	257664.81	630845.06	9.576098e-06
0	0.6343452	0.6343442	-3.6529915e-10	0.047376156	0.047376156	0	154565.95	154565.73	-9.055556e-05	631031.5	257050.98	-0.00019152196	257051.75	631030.94	-0.00024259448
0	0.6340365	0.6340355	-4.140057e-10	0.047022633	0.047022633	0	154490.75	154490.5	-9.7777774e-05	631217.4	256432.95	-0.00026813074	256433.7	631216.9	-0.0003128192
0	0.6337272	0.63372636	-3.1659259e-10	0.046669018	0.046669018	0	154415.39	154415.16	-8e-05	631402.8	255814.62	-0.00016917773	255815.36	631402.2	-0.00023621041
0	0.6334158	0.6334148	-2.6788605e-10	0.04631552	0.04631552	0	154339.5	154339.27	-5.8194444e-05	631587.94	255193.3	-7.660878e-05	255194.06	631587.44	-0.00021067416
0	0.6331033	0.6331023	-3.4094588e-10	0.045961898	0.045961898	0	154263.38	154263.14	-7.7777775e-05	631773.8	254570.06	-0.00022982636	254570.84	631773.25	-0.00026813074
0	0.6327879	0.632787	-3.531225e-10	0.045608375	0.045608375	0	154186.52	154186.28	-0.000113333335	631959.5	253942.88	-0.0003319714	253943.62	631958.9	-0.00021067416
0	0.63247126	0.63247037	-3.1659259e-10	0.045254853	0.045254853	0	154109.36	154109.14	-8e-05	632145.3	253313.7	-0.00017875383	253314.45	632144.8	-0.00028728295
0	0.6321531	0.6321521	-2.4353278e-10	0.044901323	0.044901323	0	154031.83	154031.6	-4.8888887e-05	632331.8	252681.75	-0.000102145044	252682.53	632331.3	-0.00013406537
0	0.63183206	0.63183105	-2.557094e-10	0.044547718	0.044547718	0	153953.61	153953.36	-6.888889e-05	632517.5	252046.62	-0.00022982636	252047.34	632516.94	-0.00014364148
0	0.6315078	0.6315069	-5.114188e-10	0.044194207	0.044194207	0	153874.6	153874.38	-0.00013333333	632703.9	251406.36	-0.00026813074	251407.14	632703.4	-0.00040858018
0	0.6311862	0.63118523	-2.4353278e-10	0.043840602	0.043840602	0	153796.22	153795.98	-4.2222222e-05	632889.5	250770.33	-0.00012768131	250771.17	632888.94	-0.00014683351
0	0.6308613	0.63086027	-7.305983e-11	0.043487065	0.043487065	0	153717.05	153716.84	-2.2222222e-05	633076.5	250128.5	-0.000102145044	250129.28	633075.94	9.576098e-06
0	0.6305344	0.63053334	-2.191795e-10	0.043133542	0.043133542	0	153637.4	153637.17	-6.416667e-05	633262.4	249484.94	-0.0003319714	249485.75	633261.8	-8.937692e-05
0	0.6302038	0.6302029	-1.7047294e-10	0.042779934	0.042779934	0	153556.88	153556.62	-4.6666668e-05	633449.1	248835.4	-0.00019152196	248836.19	633448.6	-9.2568946e-05
0	0.6298736	0.6298726	-1.7047294e-10	0.042426396	0.042426396	0	153476.4	153476.16	-4.6666668e-05	633634.44	248187.77	-0.00010852911	248188.58	633633.8	-0.00015321757
0	0.6295411	0.6295401	-7.305983e-11	0.042072818	0.042072818	0	153395.38	153395.14	-1.1111111e-05	633821.4	247535.3	-0.00012768131	247536.12	633820.8	-3.192033e-05
0	0.62920564	0.6292047	-9.7413105e-11	0.041719276	0.041719276	0	153313.66	153313.42	-2e-05	634007.6	246879.55	-6.384066e-05	246880.36	634007	-8.937692e-05
0	0.62886703	0.628866	-1.2176638e-11	0.04136578	0.04136578	0	153231.14	153230.89	-5.555556e-07	634194.4	246218.62	-5.745659e-05	246219.47	634193.8	-1.2768131e-05
0	0.62853014	0.6285291	-2.3135613e-10	0.04101223	0.04101223	0	153149.05	153148.8	-4.6666668e-05	634380.06	245561.23	-0.00014044944	245562.11	634379.5	-0.00017875383
0	0.628189	0.628188	-8.523647e-11	0.040658645	0.040658645	0	153065.94	153065.7	-2.2222222e-05	634567.7	244896.14	-2.5536261e-05	244896.95	634567.1	-5.1072522e-05
0	0.6278474	0.6278464	-1.9482621e-10	0.040305123	0.040305123	0	152982.69	152982.44	-4.6666668e-05	634754.25	244231.33	-3.830439e-05	244232.16	634753.56	-0.00018513789
0	0.6274994	0.6274984	-3.2876923e-10	0.039951537	0.039951537	0	152897.9	152897.64	-7.555555e-05	634942	243556.39	-0.00025536263	243557.25	634941.4	-0.00021067416
0	0.62715685	0.62715596	-3.531225e-10	0.03959798	0.03959798	0	152814.45	152814.2	-8e-05	635127.06	242891.9	-0.00029366702	242892.75	635126.44	-0.00015321757
0	0.6268058	0.62680477	-1.8264958e-10	0.039244432	0.039244432	0	152728.88	152728.64	-4.6666668e-05	635314.7	242212.53	-0.0001659857	242213.39	635314.1	-0.000102145044
0	0.62645805	0.62645704	-2.557094e-10	0.03889085	0.03889085	0	152644.16	152643.9	-5.5555556e-05	635500.4	241540.05	-0.00012768131	241540.89	635499.7	-0.00017875383
0	0.6261054	0.62610435	-1.2176639e-10	0.038537286	0.038537286	0	152558.25	152558	-3.3333334e-05	635686.7	240860.05	-7.660878e-05	240860.9	635686.06	-8.937692e-05
0	0.62574935	0.6257482	-1.5829629e-10	0.038183734	0.038183734	0	152471.48	152471.22	-5.777778e-05	635874.3	240173.94	-0.00012768131	240174.81	635873.7	-0.00016279367
0	0.62539524	0.6253942	-3.8965242e-10	0.037830178	0.037830178	0	152385.2	152384.94	-8.3611114e-05	636059.9	239492.69	-0.00025536263	239493.56	636059.2	-0.00026813074
0	0.6250368	0.6250357	-2.557094e-10	0.037476595	0.037476595	0	152297.86	152297.6	-6.4444444e-05	636246.56	238804.1	-0.00024259448	238804.95	636245.9	-0.00011172114
0	0.6246726	0.6246715	3.6529915e-11	0.037123147	0.037123147	0	152209.11	152208.83	8.888889e-06	636434.5	238106.28	2.5536261e-05	238107.17	636433.8	1.2768131e-05
0	0.62431383	0.62431264	-1.8264958e-10	0.036769584	0.036769584	0	152121.67	152121.42	-4.8888887e-05	636619.6	237418.72	-0.00014044944	237419.58	636619.06	-0.00015321757
0	0.62394905	0.6239479	-1.2176638e-11	0.03641604	0.03641604	0	152032.81	152032.55	-1.5555555e-05	636805.8	236721.97	-0.00012768131	236722.83	636805.1	3.192033e-05
0	0.6235799	0.6235787	-1.0958975e-10	0.036062464	0.036062468	0	151942.84	151942.58	-3.5555557e-05	636992.25	236018.75	-0.00014683351	236019.66	636991.5	-0.00010852911
0	0.62321055	0.6232094	-4.748889e-10	0.0357089	0.0357089	0	151852.88	151852.61	-0.00011555556	637179.1	235314.78	-0.00028089888	235315.67	637178.5	-0.00037027578
0	0.6228421	0.62284094	-3.531225e-10	0.035355333	0.035355333	0	151763.08	151762.81	-8.222222e-05	637365.75	234612.23	-0.00022982636	234613.14	637365.1	-0.00017875383
0	0.62246996	0.6224687	-1.0958975e-10	0.03500176	0.03500176	0	151672.4	151672.12	-3.0833333e-05	637551.7	233905.31	-0.00018194587	233906.23	637551	-1.2768131e-05
0	0.6220943	0.62209314	-2.3135613e-10	0.034648195	0.034648195	0	151580.88	151580.6	-4.2222222e-05	637738.2	233192.9	-7.660878e-05	233193.8	637737.5	-0.00014683351
0	0.62171596	0.6217148	-3.0441596e-10	0.034294654	0.034294654	0	151488.69	151488.4	-8.4444444e-05	637923.9	232477.55	-0.00020429009	232478.44	637923.2	-0.0002138662
0	0.6213344	0.6213333	-1.9482621e-10	0.03394109	0.03394109	0	151395.73	151395.45	-4.2222222e-05	638110.25	231757.02	-7.022472e-05	231757.92	638109.5	-0.00019152196
0	0.6209551	0.62095386	-6.0883194e-11	0.033587523	0.033587523	0	151303.27	151303	-1.5555555e-05	638296.94	231039.22	-2.5536261e-05	231040.12	638296.25	-8.937692e-05
0	0.6205722	0.62057096	-2.191795e-10	0.033234056	0.033234056	0	151209.98	151209.7	-5.3333333e-05	638482.6	230317.42	-0.00017875383	230318.34	638481.94	-0.0001564096
0	0.62018305	0.6201819	3.6529915e-11	0.03288049	0.03288049	0	151115.17	151114.89	4.4444446e-06	638668.4	229586.97	2.5536261e-05	229587.97	638667.6	2.5536261e-05
0	0.6197946	0.61979336	3.6529915e-11	0.03252695	0.03252695	0	151020.52	151020.23	8.888889e-06	638855.56	228855.89	0	228856.83	638854.9	3.830439e-05
0	0.6194066	0.6194054	2.4353276e-11	0.032173384	0.032173384	0	150925.98	150925.69	-2.2222223e-06	639040.5	228127.77	-0.00014044944	228128.72	639039.8	5.745659e-05
0	0.6190137	0.6190126	-4.2618234e-10	0.031819817	0.031819817	0	150830.27	150829.97	-0.0001	639225.75	227392.56	-0.00028089888	227393.53	639225.1	-0.00032558735
0	0.61861914	0.6186179	-1.8264958e-10	0.03146625	0.03146625	0	150734.1	150733.8	-3.7777776e-05	639411.1	226654.58	-7.660878e-05	226655.58	639410.4	-6.384066e-05
0	0.61821985	0.6182186	-2.0700285e-10	0.031112673	0.031112673	0	150636.83	150636.55	-4.8888887e-05	639597.94	225908.94	-0.000102145044	225909.9	639597.2	-0.00014044944
0	0.6178217	0.6178205	-1.7047294e-10	0.030759115	0.030759117	0	150539.81	150539.5	-4.6666668e-05	639782.44	225166.95	-8.937692e-05	225167.95	639781.75	-0.00020429009
0	0.61741555	0.61741436	-9.7413105e-11	0.030405577	0.030405577	0	150440.84	150440.53	-2.1111111e-05	639968.2	224412.56	-7.660878e-05	224413.55	639967.5	1.9152196e-05
0	0.6170115	0.6170103	-1.9482621e-10	0.030052014	0.030052014	0	150342.39	150342.1	-5.3333333e-05	640152.75	223662.36	-0.00022982636	223663.33	640152	-0.0001372574
0	0.6166082	0.61660695	-2.800627e-10	0.029698443	0.029698443	0	150244.12	150243.83	-6.222222e-05	640338.06	222912.38	-0.0001659857	222913.38	640337.25	-0.00015960164
0	0.6161955	0.61619425	-9.7413105e-11	0.029344961	0.029344961	0	150143.55	150143.27	-2.4444444e-05	640522.9	222149.8	-7.022472e-05	222150.78	640522.06	-0.000102145044
0	0.61578727	0.615786	-1.5829629e-10	0.028991401	0.028991401	0	150044.1	150043.77	-3.5555557e-05	640707.75	221393.34	-0.0001659857	221394.34	640707	6.3840653e-06
0	0.61537266	0.6153714	-2.0700285e-10	0.028637832	0.028637832	0	149943.08	149942.78	-4.6666668e-05	640892.4	220628.44	-3.830439e-05	220629.42	640891.6	-0.00016279367
0	0.6149531	0.61495185	-2.9223932e-10	0.028284296	0.028284296	0	149840.83	149840.52	-8e-05	641077.25	219855.98	-0.00029366702	219857.02	641076.56	-0.0001564096
0	0.614537	0.6145357	-1.5829629e-10	0.02793073	0.02793073	0	149739.45	149739.17	-4.4444445e-05	641261.6	219089.16	-0.00014044944	219090.19	641260.94	-0.00010852911
0	0.614116	0.61411476	-8.523647e-11	0.027577164	0.027577164	0	149636.88	149636.56	-1.3333333e-05	641445.6	218315.81	-0.00010852911	218316.86	641444.9	1.9152196e-05
0	0.6136921	0.61369085	-3.1659259e-10	0.02722359	0.02722359	0	149533.6	149533.27	-8e-05	641629.7	217538.25	-0.00018513789	217539.28	641629	-0.00024259448
0	0.6132624	0.61326104	-3.6529915e-11	0.026870033	0.026870033	0	149428.88	149428.56	-6.6666666e-06	641814.7	216751.58	-3.192033e-05	216752.62	641813.94	2.5536261e-05
0	0.61283714	0.6128358	-1.2176639e-10	0.026516499	0.026516499	0	149325.25	149324.92	-3.5555557e-05	641997.06	215973.78	-0.00014044944	215974.83	641996.3	-3.830439e-05
0	0.61240214	0.61240077	-6.0883194e-11	0.02616293	0.02616293	0	149219.27	149218.95	-2e-05	642180.8	215181.16	3.830439e-05	215182.23	642180	-0.00012129724
0	0.6119684	0.6119671	-4.505356e-10	0.02580937	0.025809374	0	149113.6	149113.25	-0.00010222222	642364.06	214390.6	-0.0003511236	214391.67	642363.3	-0.00022982636
0	0.6115346	0.6115333	-1.8264958e-10	0.025455868	0.025455868	0	149007.89	149007.56	-4e-05	642547.3	213600	-0.00011172114	213601.06	642546.56	-0.00017875383
0	0.61109644	0.61109513	-9.7413105e-11	0.025102304	0.025102306	0	148901.11	148900.78	-1.7222223e-05	642729.75	212804.1	-0.00011491318	212805.17	642729	-5.1072522e-05
0	0.61065406	0.6106527	-4.9924215e-10	0.024748735	0.024748737	0	148793.31	148793	-0.000113333335	642911.6	212002.94	-0.00028089888	212004	642910.8	-0.0003511236
0	0.6102101	0.61020875	-1.2176639e-10	0.024395213	0.024395213	0	148685.17	148684.81	-4e-05	643095.2	211197.86	-7.660878e-05	211198.95	643094.4	-0.00012448928
0	0.6097624	0.60976106	-1.0958975e-10	0.024041645	0.024041645	0	148576.05	148575.72	-3.3333334e-05	643277.56	210388.73	-0.00020429009	210389.84	643276.56	3.830439e-05
0	0.6093126	0.6093112	-3.8965242e-10	0.023688078	0.023688078	0	148466.45	148466.12	-9.944444e-05	643459.4	209577.1	-0.00024259448	209578.22	643458.6	-0.0003128192
0	0.6088609	0.6088596	-2.3135613e-10	0.023334509	0.023334509	0	148356.4	148356.06	-5.777778e-05	643640.75	208763.45	-0.00022663432	208764.58	643639.94	-0.00010852911
0	0.60840595	0.6084045	-2.4353278e-10	0.022980949	0.022980949	0	148245.55	148245.2	-6.222222e-05	643822.7	207944.53	-0.00019790603	207945.66	643821.8	-0.00015321757
0	0.60794413	0.60794276	6.0883194e-11	0.022627426	0.022627426	0	148133.02	148132.67	1.6666667e-05	644005.44	207115.25	0	207116.38	644004.5	7.3416755e-05
0	0.60748714	0.6074858	-9.7413105e-11	0.022273859	0.022273859	0	148021.67	148021.33	-3.111111e-05	644185.25	206295.58	-0.00024259448	206296.72	644184.4	1.2768131e-05
0	0.6070233	0.6070219	-2.191795e-10	0.021920301	0.021920301	0	147908.67	147908.33	-5.777778e-05	644365.5	205466.08	-0.00030005106	205467.23	644364.6	-9.576098e-05
0	0.6065562	0.6065548	-1.5829629e-10	0.021566771	0.021566771	0	147794.84	147794.5	-3.7222224e-05	644545.8	204631.75	-0.00017236976	204632.92	644544.9	-3.830439e-05
0	0.6060886	0.6060871	-4.6271226e-10	0.021213198	0.021213198	0	147680.89	147680.53	-0.00011111111	644726.25	203796.61	-0.000389428	203797.78	644725.4	-0.00025217058
0	0.6056137	0.6056123	-2.9223932e-10	0.020859638	0.020859638	0	147565.2	147564.83	-6e-05	644907.75	202950.39	-0.00015321757	202951.6	644906.8	-0.00019152196
0	0.6051432	0.6051417	-3.531225e-10	0.020506116	0.020506116	0	147450.52	147450.16	-7.7777775e-05	645085.8	202113.4	-0.0001659857	202114.58	645085.06	-0.00019152196
0	0.6046631	0.6046616	-4.140057e-10	0.020152561	0.020152561	0	147333.53	147333.17	-9.7777774e-05	645266.25	201260.73	-0.00015960164	201261.94	645265.4	-0.0003319714
0	0.6041856	0.60418403	-7.305983e-11	0.01979899	0.01979899	0	147217.19	147216.83	-2.4444444e-05	645443.75	200414.72	-8.937692e-05	200415.95	645442.94	1.9152196e-05
0	0.6037019	0.60370034	-3.0441596e-10	0.019445425	0.019445425	0	147099.33	147098.97	-8.222222e-05	645622.3	199559.06	-0.00014683351	199560.28	645621.44	-0.00022982636
0	0.6032151	0.6032136	-8.523647e-11	0.019091867	0.019091867	0	146980.72	146980.36	-2e-05	645801.2	198698.69	-8.937692e-05	198699.9	645800.3	3.1920326e-06
0	0.60272735	0.6027258	-3.8965242e-10	0.018738298	0.018738298	0	146861.88	146861.5	-8.888889e-05	645979.06	197838.05	-0.00024897855	197839.27	645978.1	-0.00023621041
0	0.6022348	0.6022333	-1.7047294e-10	0.018384792	0.018384792	0	146741.88	146741.5	-4.2222222e-05	646156.3	196971.17	-0.00015321757	196972.39	646155.44	-0.00011810521
0	0.6017359	0.6017344	-3.4094588e-10	0.018031232	0.018031234	0	146620.31	146619.92	-6.666667e-05	646335.5	196093.55	-0.00029366702	196094.8	646334.56	-0.00014683351
0	0.6012422	0.60124063	-2.557094e-10	0.017677665	0.017677665	0	146500.02	146499.64	-6.111111e-05	646511	195226.78	-0.00017236976	195228.05	646510.06	-0.0001564096
0	0.60073876	0.6007373	-3.1659259e-10	0.017324097	0.017324097	0	146377.34	146376.97	-6.9444446e-05	646687.25	194345.8	-0.00021705822	194347.05	646686.3	-0.00014364148
0	0.6002369	0.60023534	-2.4353278e-10	0.016970545	0.016970545	0	146255.06	146254.67	-6.222222e-05	646863.75	193466.69	-0.0002745148	193467.95	646862.8	-7.022472e-05
0	0.5997296	0.59972805	-2.0700285e-10	0.01661703	0.016617028	0	146131.44	146131.05	-6e-05	647039.6	192580.58	-0.00024259448	192581.86	647038.7	-0.00012129724
0	0.5992156	0.59921396	-5.966553e-10	0.016263476	0.016263476	0	146006.22	146005.81	-0.00014	647216.3	191684.2	-0.0004021961	191685.5	647215.4	-0.00035750767
0	0.59870607	0.5987045	-1.7047294e-10	0.015909908	0.015909908	0	145882.05	145881.67	-5.3333333e-05	647389.94	190797.33	-0.0001659857	190798.62	647389	-8.937692e-05
0	0.5981867	0.598185	9.7413105e-11	0.015556336	0.015556336	0	145755.5	145755.1	1.5555555e-05	647564.2	189895.84	-1.2768131e-05	189897.14	647563.2	0.00011491318
0	0.59766865	0.59766704	-1.9482621e-10	0.015202789	0.015202789	0	145629.25	145628.86	-5.6111112e-05	647738.5	188996.28	-0.00025536263	188997.6	647737.5	-6.384066e-05
0	0.59714276	0.597141	-9.132479e-11	0.014849221	0.014849221	0	145501.11	145500.72	-2.3333334e-05	647913.75	188084.69	-9.8953016e-05	188086.03	647912.75	-1.2768131e-05
0	0.59661955	0.59661794	-4.2009402e-10	0.014495701	0.014495701	0	145373.64	145373.23	-0.00010222222	648086.2	187179.86	-0.0002745148	187181.19	648085.1	-0.00030005106
0	0.5960898	0.5960882	-4.2009402e-10	0.014142148	0.014142148	0	145244.58	145244.17	-9.2222224e-05	648258.3	186266.16	-0.00030643513	186267.5	648257.25	-0.00022344229
0	0.5955579	0.59555626	-2.1309117e-10	0.013788582	0.013788582	0	145114.97	145114.55	-4.8888887e-05	648430.44	185349.31	-0.00019152196	185350.67	648429.5	-8.937692e-05
0	0.5950223	0.59502065	-1.2176639e-10	0.013435016	0.013435016	0	144984.45	144984.05	-3.5555557e-05	648602.3	184427.55	-0.00011491318	184428.92	648601.3	-3.830439e-05
0	0.5944815	0.59447986	-1.4611966e-10	0.013081465	0.013081465	0	144852.69	144852.27	-4.6666668e-05	648775.1	183497.58	-0.00021067416	183498.95	648774.2	-6.384066e-05
0	0.59393805	0.59393626	-2.0700285e-10	0.012727934	0.012727934	0	144720.25	144719.84	-5.111111e-05	648946.3	182565.5	-0.00024897855	182566.9	648945.3	-4.468846e-05
0	0.59339374	0.593392	-3.226809e-10	0.012374368	0.012374368	0	144587.66	144587.22	-7.7777775e-05	649116.1	181633.72	-0.00025536263	181635.11	649115.1	-0.00014044944
0	0.59284306	0.5928414	-1.8264958e-10	0.012020823	0.012020823	0	144453.45	144453.03	-4.777778e-05	649286.5	180692.36	-0.00017875383	180693.75	649285.44	-0.00011172114
0	0.5922921	0.5922903	-2.86151e-10	0.011667254	0.011667254	0	144319.2	144318.78	-6.777778e-05	649454.9	179752.66	-0.00011491318	179754.08	649453.9	-0.00026174667
0	0.59173274	0.591731	-3.9574075e-10	0.011313713	0.011313713	0	144182.92	144182.48	-9.944444e-05	649623.7	178800.8	-0.00026813074	178802.22	649622.6	-0.00032558735
0	0.59117645	0.5911748	-3.2876923e-10	0.0109601505	0.0109601505	0	144047.39	144046.95	-8.222222e-05	649791.6	177854.03	-0.00025536263	177855.48	649790.6	-0.00021705822
0	0.59060997	0.59060824	1.0958975e-10	0.010606599	0.010606599	0	143909.34	143908.92	3.3333334e-05	649959.06	176893.48	5.4264554e-05	176894.94	649958	0.00013087333
0	0.59004486	0.590043	4.8706553e-11	0.010253058	0.010253058	0	143771.62	143771.19	1.3333333e-05	650126.25	175935	4.468846e-05	175936.47	650125.2	3.830439e-05
0	0.5894751	0.58947325	-8.523647e-11	0.009899495	0.009899495	0	143632.81	143632.36	-1.5555555e-05	650293.56	174970.11	-7.660878e-05	174971.55	650292.5	-3.192033e-05
0	0.5889007	0.58889884	-2.0700285e-10	0.009545933	0.009545933	0	143492.86	143492.4	-5.777778e-05	650459.9	173999.7	-3.830439e-05	174001.16	650458.7	-0.00022982636
0	0.58832365	0.5883218	9.7413105e-11	0.009192396	0.009192396	0	143352.25	143351.8	3.5555557e-05	650625.3	173026.25	3.830439e-05	173027.73	650624.3	0.000102145044
0	0.5877428	0.58774096	-4.8706553e-11	0.008838832	0.008838832	0	143210.72	143210.25	-1.3333333e-05	650789.8	172048.47	-8.299285e-05	172049.98	650788.8	1.9152196e-05
0	0.58715504	0.58715314	-3.0441596e-10	0.0084852725	0.0084852725	0	143067.5	143067.03	-8e-05	650955.1	171060.39	-0.0002457865	171061.9	650954	-0.00014044944
0	0.58657014	0.58656824	-2.0700285e-10	0.008131738	0.008131738	0	142924.97	142924.52	-5.4444445e-05	651116.94	170079.72	-0.00032558735	170081.27	651115.75	-6.3840653e-06
0	0.5859769	0.585975	-6.0883194e-11	0.007778168	0.007778168	0	142780.42	142779.95	-7.777778e-06	651280.7	169085.42	-0.00017236976	169086.95	651279.56	0.000102145044
0	0.5853806	0.5853787	-1.6438462e-10	0.0074246107	0.0074246107	0	142635.16	142634.66	-4.2222222e-05	651442.56	168088.77	-0.00020429009	168090.31	651441.4	1.2768131e-05
0	0.5847803	0.5847783	-5.053305e-10	0.007071074	0.007071074	0	142488.86	142488.39	-0.00011777778	651603.8	167086.97	-0.0004021961	167088.53	651602.7	-0.00030005106
0	0.58417577	0.5841738	-1.5220798e-10	0.006717508	0.006717508	0	142341.55	142341.08	-3.7777776e-05	651766.25	166078.2	-0.0001659857	166079.8	651765.06	-1.2768131e-05