# t (s)	mx ()	my ()	mz ()	B_extx (T)	B_exty (T)	B_extz (T)	m_fullx (A/m)	m_fully (A/m)	m_fullz (A/m)	m_full.region1x (A/m)	m_full.region1y (A/m)	m_full.region1z (A/m)	m_full.region2x (A/m)	m_full.region2y (A/m)	m_full.region2z (A/m)
0	0.64426816	0.6442657	-3.7895778e-10	0.07071087	0.07071087	0	94522.305	94521.945	-5.4729328e-05	634629.9	267343.66	-0.00021003633	267345.56	634628.3	-0.00030086286
0	0.6440221	0.6440216	-2.5985677e-10	0.07035726	0.07035726	0	94486.19	94486.125	-4.0452112e-05	634817.1	266813.56	-0.00018165304	266813.8	634816.7	-0.00013056313
0	0.6437718	0.64377147	2.3820204e-10	0.07000352	0.07000352	0	94449.49	94449.42	3.569304e-05	635010.94	266269.53	0.00023841961	266269.7	635010.44	0.00014475477
0	0.6435211	0.6435207	-7.5791554e-11	0.06964991	0.06964991	0	94412.695	94412.65	-9.518144e-06	635204.75	265724.6	-5.6766577e-05	265724.75	635204.4	-3.4059947e-05
0	0.643268	0.6432677	-3.0316621e-10	0.06929658	0.06929658	0	94375.56	94375.51	-3.8072576e-05	635399	265176.1	-0.00022706631	265176.25	635398.6	-0.00015894641
0	0.6430155	0.643015	-1.7323784e-10	0.068943	0.068943	0	94338.516	94338.47	-2.6174896e-05	635592.56	264628.9	-0.00022706631	264629.03	635592.25	-5.392825e-05
0	0.64275897	0.6427586	-3.1399358e-10	0.06858926	0.06858926	0	94300.9	94300.836	-5.353956e-05	635787.8	264074.72	-0.00022138965	264074.84	635787.4	-0.00019868302
0	0.64250284	0.6425025	-2.7068411e-10	0.06823566	0.06823566	0	94263.305	94263.24	-4.4021417e-05	635982.4	263521.44	-0.00015326975	263521.6	635982.06	-0.00021287466
0	0.6422453	0.6422449	-1.5158311e-10	0.06788233	0.06788233	0	94225.51	94225.47	-2.1415824e-05	636177.44	262965.8	-2.270663e-05	262965.94	636177	-0.0001873297
0	0.6419838	0.6419834	-3.2482095e-10	0.067528725	0.067528725	0	94187.164	94187.1	-5.1160023e-05	636373.8	262403.28	-0.00024977294	262403.44	636373.44	-0.00022848547
0	0.6417257	0.64172536	-3.4647568e-10	0.067174986	0.067174986	0	94149.3	94149.234	-5.234979e-05	636567.94	261847.98	-0.00027815622	261848.12	636567.44	-0.00017029973
0	0.6414614	0.64146096	-2.5985677e-10	0.06682178	0.066821784	0	94110.516	94110.45	-4.0452112e-05	636764.8	261281.02	-0.00022706631	261281.19	636764.4	-0.000110694826
0	0.64119923	0.6411989	-3.0316621e-10	0.06646817	0.06646817	0	94072.055	94072	-4.1046995e-05	636960.06	260718.72	-0.00020152134	260718.86	636959.7	-0.00023983879
0	0.64093536	0.640935	-1.9489257e-10	0.06611443	0.06611443	0	94033.34	94033.28	-3.2123735e-05	637155.7	260153.7	-9.366485e-05	260153.88	637155.2	-0.0001873297
0	0.64066905	0.64066863	-3.0316621e-10	0.065760836	0.065760836	0	93994.27	93994.22	-4.5211185e-05	637352.06	259584.48	-0.000215713	259584.66	637351.7	-0.00019584468
0	0.6404009	0.6404005	-2.8151148e-10	0.06540749	0.06540749	0	93954.93	93954.875	-4.7590718e-05	637549.1	259012.06	-0.00034059945	259012.2	637548.6	-0.0001632039
0	0.64013207	0.6401317	-4.6016302e-10	0.06505392	0.06505392	0	93915.484	93915.43	-6.900654e-05	637745.7	258439.02	-0.00026112626	258439.19	637745.3	-0.00036188692
0	0.63986164	0.6398612	-5.846777e-10	0.06470018	0.06470018	0	93875.805	93875.74	-8.4473526e-05	637942.6	257863.42	-0.00040304268	257863.61	637942.25	-0.00042858763
0	0.6395871	0.6395867	-4.655767e-10	0.06434658	0.06434658	0	93835.52	93835.47	-6.186793e-05	638141.3	257280.47	-0.0003065395	257280.66	638140.9	-0.00028099454
0	0.63931644	0.639316	-4.330946e-11	0.06399324	0.06399323	0	93795.83	93795.76	-4.164188e-06	638337.25	256705.61	1.1353315e-05	256705.78	638336.75	-9.650318e-05
0	0.63904124	0.6390409	-3.0316621e-10	0.06363964	0.06363964	0	93755.45	93755.39	-3.8072576e-05	638535.1	256122.42	-0.0001674614	256122.62	638534.75	-0.00024977294
0	0.6387653	0.63876486	-2.7068411e-10	0.0632859	0.0632859	0	93714.96	93714.9	-3.9262344e-05	638732.75	255538.55	-0.0002582879	255538.73	638732.25	-0.000122048135
0	0.63848704	0.63848656	-2.7068411e-10	0.06293268	0.06293268	0	93674.14	93674.07	-3.866746e-05	638929.75	254951.9	-0.00014759309	254952.08	638929.3	-0.0002469346
0	0.63820595	0.6382055	-6.496419e-10	0.06257908	0.06257908	0	93632.89	93632.836	-9.1612135e-05	639129.06	254359.11	-0.00055631244	254359.3	639128.56	-0.00041155767
0	0.6379272	0.6379267	-2.165473e-11	0.062225346	0.062225346	0	93592	93591.94	-3.569304e-06	639327.7	253770.22	3.4059947e-05	253770.4	639327.2	-0.00010643733
0	0.63764536	0.63764495	-1.9489257e-10	0.06187177	0.06187177	0	93550.664	93550.59	-2.0226056e-05	639525.9	253177.47	-0.00017029973	253177.67	639525.3	-5.9604903e-05
0	0.63736075	0.6373603	-2.8151148e-10	0.061518386	0.061518386	0	93508.9	93508.83	-3.6882808e-05	639725.25	252579.64	-0.00018165304	252579.83	639724.8	-0.00019016802
0	0.63707566	0.63707525	-1.4075574e-10	0.061164837	0.061164837	0	93467.08	93467	-1.5466983e-05	639924.25	251981.42	-0.00015894641	251981.61	639923.9	-3.4059947e-05
0	0.6367894	0.6367889	-3.5730305e-10	0.060811102	0.060811102	0	93425.08	93425	-5.2944677e-05	640123.1	251381.89	-0.00029802453	251382.1	640122.7	-0.00021003633
0	0.6365008	0.6365003	-1.9489257e-10	0.060457516	0.06045752	0	93382.73	93382.65	-2.3795359e-05	640322.75	250778.11	-0.00017313806	250778.33	640322.2	-8.37307e-05
0	0.63621026	0.6362098	-4.3309462e-10	0.060104135	0.060104135	0	93340.11	93340.04	-7.138608e-05	640521.8	250172.34	-0.0003349228	250172.55	640521.4	-0.0003349228
0	0.63591933	0.6359188	-9.744629e-11	0.059750553	0.059750553	0	93297.414	93297.336	-1.18976795e-05	640722.2	249564.61	-0.000113533155	249564.83	640721.75	-2.270663e-05
0	0.6356232	0.63562274	-3.2482097e-11	0.059396826	0.059396826	0	93253.984	93253.91	-9.518144e-06	640923.9	248948.47	-4.825159e-05	248948.7	640923.44	2.8383289e-05
0	0.6353314	0.6353309	-7.5791554e-11	0.059043575	0.059043575	0	93211.17	93211.08	-1.5466983e-05	641122.56	248341.11	-0.00013623979	248341.38	641122.1	7.3796546e-05
0	0.6350348	0.6350343	-4.2226725e-10	0.058689997	0.058689997	0	93167.66	93167.58	-6.186793e-05	641323.2	247725.36	-0.00024977294	247725.55	641322.7	-0.00034343777
0	0.6347377	0.63473725	-3.4647568e-10	0.05833626	0.058336258	0	93124.07	93123.99	-5.353956e-05	641523	247109.61	-0.00022138965	247109.84	641522.5	-0.0002753179
0	0.6344374	0.63443696	-1.6241047e-10	0.057982698	0.057982698	0	93080.01	93079.94	-2.4985127e-05	641723.75	246488.42	-0.000215713	246488.66	641723.25	-7.3796546e-05
0	0.6341365	0.6341359	-1.9489257e-10	0.057629284	0.057629284	0	93035.86	93035.766	-3.3313503e-05	641925.1	245865.7	-8.514986e-05	245865.94	641924.56	-0.00017029973
0	0.6338337	0.63383317	-2.2737466e-10	0.057275716	0.057275716	0	92991.43	92991.35	-3.3313503e-05	642126.44	245240.52	-0.00026112626	245240.75	642126	-0.0001277248
0	0.6335292	0.63352865	-2.7068411e-10	0.056922022	0.056922022	0	92946.75	92946.67	-4.4021417e-05	642327.25	244613.38	-0.0003065395	244613.61	642326.75	-0.000113533155
0	0.63322306	0.6332225	-4.764041e-10	0.05656846	0.05656846	0	92901.84	92901.77	-7.0196314e-05	642529.06	243983	-0.00024409627	243983.28	642528.56	-0.00047967758
0	0.632916	0.6329153	-2.9233885e-10	0.056215033	0.056215025	0	92856.79	92856.7	-4.7590718e-05	642730.4	243351.64	-0.00022706631	243351.92	642729.94	-0.00021429382
0	0.6326063	0.63260573	-2.165473e-11	0.055861466	0.055861466	0	92811.37	92811.29	2.379536e-06	642932.4	242716.23	-6.8119894e-05	242716.5	642931.8	3.6898273e-05
0	0.632295	0.6322944	-2.7068411e-10	0.055507746	0.055507746	0	92765.68	92765.6	-4.2236763e-05	643134.5	242078.25	-0.00021003633	242078.48	643133.9	-0.000215713
0	0.6319803	0.6319797	-3.2482095e-10	0.055154465	0.055154465	0	92719.52	92719.44	-4.5211185e-05	643337.56	241434.62	-0.000215713	241434.9	643337	-0.00024835378
0	0.6316675	0.63166696	-4.0061252e-10	0.054800905	0.054800905	0	92673.625	92673.55	-6.067817e-05	643539.06	240795.2	-0.00026112626	240795.48	643538.56	-0.00032498865
0	0.6313515	0.63135093	-4.2226725e-10	0.054447185	0.054447185	0	92627.27	92627.18	-6.365259e-05	643740.7	240151.19	-0.00023841961	240151.45	643740.1	-0.00034627612
0	0.63103384	0.6310333	-3.4647568e-10	0.054093633	0.054093633	0	92580.664	92580.58	-4.6400954e-05	643943.6	239503.48	-0.00022138965	239503.77	643943.1	-0.00022990463
0	0.63071245	0.63071185	-3.6813042e-10	0.053740174	0.053740174	0	92533.51	92533.42	-4.9970255e-05	644147.25	238849.94	-0.00023841961	238850.2	644146.75	-0.00024977294
0	0.6303924	0.63039166	-1.08273654e-10	0.053386625	0.05338663	0	92486.54	92486.45	-1.7251636e-05	644349.2	238199.89	-9.082652e-05	238200.17	644348.5	-0.00010217984
0	0.6300687	0.6300681	-3.8978515e-10	0.053032942	0.053032942	0	92439.07	92438.984	-5.7108864e-05	644552.56	237543.4	-0.0002469346	237543.7	644552	-0.00029518618
0	0.62974405	0.62974346	-1.1910102e-10	0.052679405	0.052679405	0	92391.445	92391.35	-2.0226056e-05	644755.25	236886.14	1.1353315e-05	236886.45	644754.7	-0.00017313806
0	0.62941724	0.62941664	-3.8978515e-10	0.052325923	0.05232592	0	92343.48	92343.4	-5.94884e-05	644959.1	236224.75	-0.000414396	236225.06	644958.56	-0.00019868302
0	0.62908846	0.6290879	-3.4647568e-10	0.051972385	0.051972385	0	92295.25	92295.164	-5.4729328e-05	645162.6	235560.92	-0.00017597638	235561.27	645162.06	-0.00034627612
0	0.6287577	0.6287571	-2.3820204e-10	0.051618665	0.051618665	0	92246.72	92246.64	-2.8554432e-05	645366.6	234893.86	-0.000110694826	234894.16	645366.06	-0.00022138965
0	0.6284262	0.6284256	-4.1143988e-10	0.051265355	0.051265355	0	92198.086	92198	-5.8893515e-05	645569.56	234226.86	-0.00028383287	234227.17	645568.94	-0.00028667122
0	0.628092	0.6280914	-1.5158311e-10	0.05091181	0.05091181	0	92149.055	92148.98	-2.8554432e-05	645773.6	233554.84	-0.00017597638	233555.14	645773.1	-0.00010217984
0	0.62775457	0.627754	-3.2482095e-10	0.050558098	0.050558098	0	92099.555	92099.45	-4.4021417e-05	645978.44	232877.67	-0.00019868302	232877.97	645977.9	-0.00026112626
0	0.6274183	0.6274176	-2.2737466e-10	0.050204575	0.050204575	0	92050.2	92050.11	-3.569304e-05	646181.94	232203.34	-0.00028383287	232203.67	646181.4	-0.00013623979
0	0.6270777	0.62707704	4.330946e-11	0.04985106	0.04985106	0	92000.24	92000.15	8.328376e-06	646386.56	231521.81	4.541326e-05	231522.17	646386	-2.8383288e-06
0	0.62673706	0.6267363	-2.0571994e-10	0.049497537	0.049497537	0	91950.27	91950.164	-3.2123735e-05	646590.5	230840.97	2.8383288e-06	230841.31	646589.9	-0.00024409627
0	0.62639356	0.6263929	-1.4075574e-10	0.049143866	0.049143866	0	91899.88	91899.77	-2.2605593e-05	646795.2	230155.48	-7.9473204e-05	230155.81	646794.56	-0.000110694826
0	0.6260459	0.6260452	-1.08273654e-10	0.048790347	0.048790347	0	91848.86	91848.766	-1.3087448e-05	647001.1	229462.75	-4.257493e-05	229463.1	647000.5	-6.2443236e-05
0	0.6257005	0.62569976	-1.5158311e-10	0.048436813	0.048436813	0	91798.19	91798.08	-1.784652e-05	647204.6	228775.69	1.4191644e-05	228776.06	647204	-0.00019300636
0	0.62535185	0.6253512	-3.8978515e-10	0.048083298	0.048083294	0	91747.04	91746.95	-5.94884e-05	647409.2	228083.12	-0.00022138965	228083.48	647408.56	-0.00028667122
0	0.6250005	0.62499976	-2.1654731e-10	0.047729593	0.047729593	0	91695.484	91695.39	-3.3313503e-05	647614.5	227385.84	-0.00019300636	227386.25	647613.8	-0.00015894641
0	0.6246477	0.62464696	-7.5791554e-11	0.04737624	0.04737624	0	91643.734	91643.62	-1.18976795e-05	647819	226687.34	-9.082652e-05	226687.72	647818.4	-2.554496e-05
0	0.6242923	0.6242916	-7.5791554e-11	0.047022723	0.047022723	0	91591.586	91591.484	-1.6656752e-05	648024.75	225984.2	-2.270663e-05	225984.56	648024	-0.00013340145
0	0.623935	0.6239343	-8.661892e-11	0.046669014	0.046669014	0	91539.17	91539.08	-1.4277216e-05	648229.06	225279.61	-0.00013056313	225280	648228.44	4.2574934e-06
0	0.623576	0.62357527	-1.08273654e-10	0.046315517	0.046315517	0	91486.5	91486.39	-1.4277216e-05	648435	224570.97	-0.00013623979	224571.36	648434.4	-1.4191644e-05
0	0.6232121	0.6232113	-4.5474932e-10	0.045961946	0.04596195	0	91433.11	91433	-7.0196314e-05	648642.6	223853.9	-0.00041155767	223854.28	648642	-0.00022706631
0	0.622852	0.6228513	-1.9489257e-10	0.045608446	0.045608446	0	91380.28	91380.19	-2.3795359e-05	648846	223146.44	-0.00010217984	223146.83	648845.4	-0.00013482061
0	0.62248605	0.6224854	-2.9233885e-10	0.04525478	0.04525478	0	91326.6	91326.49	-5.4729328e-05	649052.5	222427.61	-0.00027247958	222428	649051.9	-0.00023841961
0	0.62211907	0.6221183	-2.490294e-10	0.044901285	0.044901285	0	91272.74	91272.63	-3.0933967e-05	649257.4	221708.92	-0.0002668029	221709.34	649256.75	-8.514986e-05
0	0.6217497	0.621749	-2.1654731e-10	0.044547703	0.044547703	0	91218.55	91218.445	-2.3795359e-05	649463.9	220985.31	-0.0003065395	220985.7	649463.2	-7.095822e-05
0	0.6213763	0.6213755	-3.0316621e-10	0.04419421	0.044194214	0	91163.77	91163.66	-4.9970255e-05	649671.06	220255.28	-0.00024977294	220255.73	649670.4	-0.00020435968
0	0.6210049	0.6210041	-4.0061252e-10	0.043840516	0.04384051	0	91109.3	91109.17	-5.4134445e-05	649875.06	219531.42	-0.00040871935	219531.83	649874.4	-0.00015610809
0	0.6206288	0.620628	-2.5985677e-10	0.043487024	0.043487024	0	91054.1	91053.984	-3.9262344e-05	650082.4	218797.5	-0.00023841961	218797.94	650081.75	-0.000119209806
0	0.62025166	0.6202509	-4.764041e-10	0.043133628	0.043133628	0	90998.78	90998.66	-7.138608e-05	650287.7	218064.22	-0.00027247958	218064.66	650287	-0.00037182108
0	0.61987174	0.61987096	-1.8406521e-10	0.04277993	0.04277993	0	90943.03	90942.92	-2.2010709e-05	650493.94	217326.05	-5.6766577e-05	217326.52	650493.25	-0.00022706631
0	0.6194894	0.6194886	-4.764041e-10	0.04242645	0.042426445	0	90886.94	90886.81	-7.3765616e-05	650699.75	216584.95	-0.00039736604	216585.42	650699.06	-0.00034059945
0	0.61910516	0.6191044	-2.9233885e-10	0.042072833	0.042072836	0	90830.58	90830.46	-4.5211185e-05	650907	215839.86	-0.00014759309	215840.31	650906.3	-0.0002753179
0	0.6187161	0.6187152	-4.3309462e-10	0.04171935	0.04171935	0	90773.49	90773.375	-6.781678e-05	651115.2	215086.94	-0.00039736604	215087.39	651114.44	-0.000215713
0	0.6183304	0.6183296	-3.7895778e-10	0.041365705	0.041365705	0	90716.9	90716.77	-5.7108864e-05	651319.7	214342.31	-0.00030937785	214342.78	651319	-0.00019868302
0	0.6179391	0.6179382	-3.6813042e-10	0.041012242	0.041012242	0	90659.49	90659.37	-4.8780486e-05	651525.8	213588.42	-0.00027247958	213588.92	651525.1	-0.00024977294
0	0.6175457	0.61754483	-9.744629e-11	0.04065859	0.04065859	0	90601.77	90601.65	-1.4277216e-05	651733.6	212829.89	-0.00021855131	212830.36	651732.94	5.5347413e-05
0	0.6171514	0.61715055	-2.1654731e-10	0.04030513	0.04030513	0	90543.94	90543.81	-2.97442e-05	651939.1	212072.36	-0.00017597638	212072.84	651938.5	-0.00014191643
0	0.616753	0.6167521	-2.3820204e-10	0.039951436	0.039951444	0	90485.47	90485.34	-3.8072576e-05	652146.8	211306.8	-0.00024977294	211307.28	652146.1	-0.000113533155
0	0.6163533	0.6163525	-4.330946e-11	0.03959798	0.039597973	0	90426.84	90426.72	-2.379536e-06	652352.9	210541.33	-2.270663e-05	210541.84	652352.2	-2.8383288e-06
0	0.61595076	0.61594987	-2.5985677e-10	0.039244536	0.039244536	0	90367.78	90367.64	-3.9262344e-05	652559.56	209770.9	-0.00019868302	209771.45	652558.8	-0.00015468893
0	0.6155458	0.615545	-1.7323784e-10	0.038890846	0.038890846	0	90308.375	90308.234	-2.2605593e-05	652766.2	208997.42	-6.8119894e-05	208997.95	652765.5	-0.0002313238
0	0.6151402	0.61513925	-1.6241047e-10	0.03853739	0.03853739	0	90248.86	90248.73	-1.8441404e-05	652972.94	208222.78	-0.00023841961	208223.31	652972.2	2.8383289e-05
0	0.61473125	0.61473024	-1.8406521e-10	0.03818371	0.03818371	0	90188.86	90188.73	-2.3795359e-05	653180.2	207443.02	-0.00015326975	207443.52	653179.44	-0.00012488647
0	0.61431724	0.6143164	-2.8151148e-10	0.03783026	0.03783026	0	90128.13	90127.99	-4.283165e-05	653387.7	206655.98	-0.00020435968	206656.52	653386.8	-0.00020861717
0	0.61390454	0.6139036	-6.4964194e-11	0.037476573	0.037476573	0	90067.58	90067.44	-1.18976795e-05	653595.4	205870.45	-0.00012488647	205871.02	653594.56	3.1221618e-05
0	0.61348945	0.61348855	-1.6241047e-10	0.037123177	0.037123173	0	90006.68	90006.53	-2.6174896e-05	653800.94	205083.86	-0.00021855131	205084.4	653800.06	-1.9868301e-05
0	0.6130683	0.6130673	-4.330946e-11	0.036769494	0.036769494	0	89944.88	89944.74	-1.18976795e-05	654010.06	204284.95	-6.8119894e-05	204285.52	654009.25	-1.9868301e-05
0	0.6126487	0.61264783	0	0.036416046	0.036416046	0	89883.34	89883.19	-2.9744199e-06	654216.06	203491.61	5.6766577e-05	203492.22	654215.25	-9.508401e-05
0	0.61222506	0.6122241	-1.2992839e-10	0.03606236	0.03606236	0	89821.18	89821.04	-1.6656752e-05	654423.3	202691.27	-7.9473204e-05	202691.88	654422.5	-8.231153e-05
0	0.6118003	0.6117993	-4.0061252e-10	0.0357089	0.0357089	0	89758.86	89758.72	-6.186793e-05	654628.8	201891.14	-0.00036330608	201891.73	654627.94	-0.00025261127
0	0.61137015	0.61136913	-5.6302296e-10	0.035355438	0.035355434	0	89695.75	89695.59	-8.268888e-05	654837.6	201080	-0.00038033605	201080.61	654836.8	-0.00039736604
0	0.610939	0.610938	-6.4964194e-11	0.03500176	0.03500176	0	89632.5	89632.34	-4.759072e-06	655044.7	200269.42	-8.798819e-05	200270.03	655043.75	5.6766576e-06
0	0.6105053	0.6105043	-1.8406521e-10	0.03464829	0.03464829	0	89568.86	89568.72	-2.8554432e-05	655250.3	199456.5	-0.00024977294	199457.11	655249.5	-5.108992e-05
0	0.6100706	0.6100696	-1.8406521e-10	0.03429463	0.03429463	0	89505.08	89504.92	-2.7364664e-05	655456.8	198641.33	-5.6766577e-05	198641.95	655456	-0.00014759309
0	0.6096303	0.6096293	-2.3820204e-10	0.033941165	0.033941165	0	89440.49	89440.336	-3.569304e-05	655665.9	197815.84	-0.00017313806	197816.48	655665.1	-0.00013907811
0	0.6091911	0.60919017	-2.1654731e-10	0.033587493	0.033587493	0	89376.055	89375.9	-3.450327e-05	655871.06	196995.92	-0.00018165304	196996.58	655870.2	-0.0001632039
0	0.60874546	0.6087444	-2.3820204e-10	0.033234086	0.033234086	0	89310.67	89310.516	-2.7364664e-05	656079.94	196163.03	-0.00017597638	196163.69	656079.2	-0.000110694826
0	0.6083008	0.60829973	-3.6813042e-10	0.032880418	0.032880418	0	89245.44	89245.27	-5.1160023e-05	656284.75	195335.77	-0.00034343777	195336.44	656283.94	-0.00019868302
0	0.60785	0.60784894	-2.7068411e-10	0.03252696	0.03252696	0	89179.305	89179.13	-3.747769e-05	656493.8	194495.55	-0.00018165304	194496.2	656492.94	-0.000122048135
0	0.60739934	0.6073983	-1.9489257e-10	0.03217329	0.03217329	0	89113.19	89113.02	-2.97442e-05	656698.94	193659.4	-0.00017029973	193660.1	656698.2	-0.00015894641
0	0.60694396	0.6069429	-2.490294e-10	0.03181982	0.03181982	0	89046.375	89046.21	-3.2123735e-05	656905.9	192815.03	-0.00016178474	192815.72	656905	-0.00020152134
0	0.6064873	0.6064861	-3.4647568e-10	0.03146634	0.03146634	0	88979.36	88979.195	-4.7590718e-05	657114.4	191967.1	-0.00031789282	191967.8	657113.5	-0.0001873297
0	0.60602695	0.6060259	-4.1143988e-10	0.031112673	0.031112673	0	88911.84	88911.67	-5.8298632e-05	657321.44	191115.72	-0.00028383287	191116.42	657320.5	-0.00029234786
0	0.6055652	0.60556394	-1.5158311e-10	0.030759193	0.030759193	0	88844.08	88843.9	-1.4277216e-05	657527.8	190262.67	-0.000113533155	190263.39	657526.94	-0.000103599
0	0.60510063	0.60509944	-1.08273654e-10	0.030405553	0.030405553	0	88775.92	88775.75	-1.4277216e-05	657732.94	189407.19	-0.00013623979	189407.9	657732.06	-2.270663e-05
0	0.60463053	0.60462934	-2.3820204e-10	0.030052068	0.030052068	0	88706.96	88706.79	-3.53956e-05	657941.9	188540.11	-0.00020435968	188540.84	657941	-0.00015043143
0	0.6041611	0.6041599	-2.3820204e-10	0.029698413	0.029698411	0	88638.086	88637.91	-3.0933967e-05	658148	187676.73	-0.00021855131	187677.5	658147.06	-7.6634875e-05
0	0.60368735	0.6036861	9.744629e-11	0.029344996	0.029344998	0	88568.59	88568.41	8.328376e-06	658353.1	186808.45	2.270663e-05	186809.2	658352.1	8.231153e-05
0	0.60321265	0.60321146	-3.6813042e-10	0.028991349	0.028991349	0	88498.94	88498.766	-4.8185604e-05	658559.06	185937.88	-0.00026112626	185938.64	658558.1	-0.00019300636
0	0.60273147	0.6027303	-4.1143988e-10	0.028637858	0.028637858	0	88428.36	88428.164	-6.781678e-05	658766.25	185057.03	-0.00031221617	185057.81	658765.3	-0.00035762944
0	0.60224915	0.6022479	-7.687429e-10	0.02828423	0.02828423	0	88357.586	88357.4	-0.00011778703	658972.8	184175.31	-0.00063578563	184176.1	658971.8	-0.00051941414
0	0.6017643	0.60176307	-8.661892e-11	0.027930733	0.027930733	0	88286.445	88286.26	-1.4277216e-05	659180.44	183288.84	-0.0001078565	183289.62	659179.44	8.514987e-06
0	0.6012778	0.6012765	-1.5158311e-10	0.027577233	0.02757723	0	88215.07	88214.89	-2.1415824e-05	659384.8	182403.34	-0.00015043143	182404.14	659383.75	-7.3796546e-05
0	0.6007852	0.6007839	-9.744629e-11	0.027223593	0.027223593	0	88142.805	88142.62	-2.1415824e-05	659591.56	181506.9	-0.00010217984	181507.7	659590.6	-8.514986e-05
0	0.6002918	0.60029054	-1.6241047e-10	0.026870087	0.026870087	0	88070.42	88070.23	-2.2903034e-05	659798.8	180608.95	-0.000113533155	180609.8	659797.8	-9.082652e-05
0	0.5997966	0.5997952	-2.8692518e-10	0.026516471	0.026516471	0	87997.75	87997.555	-3.450327e-05	660002.8	179711.39	-0.00024977294	179712.25	660001.9	-0.00012488647
0	0.5992962	0.5992949	-1.7323784e-10	0.02616296	0.02616296	0	87924.35	87924.16	-2.4985127e-05	660208.9	178805	-9.082652e-05	178805.84	660207.9	-0.00013340145
0	0.5987918	0.59879035	-5.251272e-10	0.02580933	0.02580933	0	87850.336	87850.14	-7.495538e-05	660416.9	177890.69	-0.00040871935	177891.56	660415.8	-0.0003235695
0	0.5982874	0.59828603	-2.2196098e-10	0.025455905	0.025455905	0	87776.336	87776.14	-2.6174896e-05	660620.7	176980.78	-0.00013907811	176981.67	660619.6	-0.00017171889
0	0.59777725	0.5977758	-2.1654731e-10	0.025102288	0.025102288	0	87701.484	87701.28	-3.0933967e-05	660826.56	176060.61	-9.082652e-05	176061.5	660825.5	-0.000215713
0	0.59726495	0.5972635	-5.305409e-10	0.024748769	0.024748769	0	87626.33	87626.125	-7.971445e-05	661032	175138.03	-0.00036898276	175138.94	661030.9	-0.00037182108
0	0.59674937	0.596748	-2.3278834e-10	0.024395173	0.024395173	0	87550.695	87550.484	-3.569304e-05	661239.3	174208.9	-0.00019016802	174209.84	661238.25	-0.00011211399
0	0.59623134	0.5962299	-1.1910102e-10	0.024041649	0.024041647	0	87474.695	87474.48	-2.4985127e-05	661444.4	173278.47	-0.000215713	173279.4	661443.44	2.270663e-05
0	0.5957097	0.5957083	-2.760978e-10	0.02368812	0.02368812	0	87398.164	87397.96	-4.0749554e-05	661649.6	172343.02	-0.00019868302	172343.95	661648.56	-0.00018165304
0	0.59518623	0.5951848	-3.7354408e-10	0.023334507	0.023334507	0	87321.36	87321.16	-5.7108864e-05	661852.94	171406.81	-0.00029518618	171407.78	661851.9	-0.0003150545
0	0.5946564	0.5946549	-7.037787e-11	0.022980975	0.022980975	0	87243.63	87243.414	-5.9488398e-06	662060.06	170457.95	-0.000113533155	170458.92	662059	6.9539055e-05
0	0.59412473	0.59412324	-2.3820204e-10	0.02262739	0.02262739	0	87165.64	87165.414	-4.164188e-05	662265.06	169508.55	-0.00017597638	169509.55	662264.06	-0.00022138965
0	0.5935904	0.5935888	-2.165473e-11	0.022273852	0.022273852	0	87087.23	87087.016	-7.138608e-06	662469.7	168555.75	-1.9868301e-05	168556.75	662468.7	-6.38624e-05
0	0.59305286	0.5930513	-2.0030626e-10	0.021920258	0.021920254	0	87008.36	87008.14	-2.7364664e-05	662674.2	167598.75	-0.00019300636	167599.77	662673.1	-4.6832425e-05
0	0.592513	0.5925114	-2.0571994e-10	0.021566814	0.021566814	0	86929.16	86928.945	-2.7067223e-05	662876.75	166640.36	-0.00017597638	166641.39	662875.7	-0.000113533155
0	0.59196764	0.5919661	-3.6271672e-10	0.021213222	0.021213222	0	86849.16	86848.92	-4.9970255e-05	663081.4	165672.28	-0.00029234786	165673.31	663080.25	-0.0002469346
0	0.59141827	0.59141666	-7.0377876e-10	0.020859675	0.020859675	0	86768.555	86768.32	-0.00010469958	663287.8	164696.7	-0.00050522253	164697.77	663286.6	-0.00051941414
0	0.5908671	0.5908655	1.6241047e-10	0.020506121	0.020506121	0	86687.695	86687.46	2.3795359e-05	663491.8	163721.05	1.7029974e-05	163722.11	663490.7	0.00019868302
0	0.5903141	0.5903125	-3.2482095e-10	0.020152565	0.020152565	0	86606.55	86606.31	-4.283165e-05	663693.56	162745.06	-0.00029802453	162746.16	663692.4	-0.00014191643
0	0.5897549	0.5897532	-1.7865152e-10	0.019798987	0.019798987	0	86524.51	86524.27	-2.6174896e-05	663897.9	161757.78	-0.00015326975	161758.89	663896.8	-7.6634875e-05
0	0.589192	0.5891904	-3.2482095e-10	0.019445421	0.019445421	0	86441.945	86441.695	-3.9857227e-05	664103.5	160764.22	-0.00024977294	160765.34	664102.3	-0.00012488647
0	0.5886266	0.588625	-1.4075574e-10	0.019091856	0.019091856	0	86358.984	86358.74	-1.784652e-05	664307	159769.16	-0.00026964123	159770.3	664305.8	4.541326e-05
0	0.58805764	0.58805597	-3.0316621e-10	0.018738287	0.018738287	0	86275.516	86275.26	-4.6400954e-05	664510.44	158769.11	-0.00028383287	158770.27	664509.3	-0.00013340145
0	0.58748645	0.5874848	-3.0316621e-10	0.018384745	0.018384747	0	86191.71	86191.46	-3.9857227e-05	664711.75	157768.16	-0.00019300636	157769.31	664710.56	-0.000215713
0	0.5869093	0.58690757	-1.3534206e-10	0.01803118	0.01803118	0	86107.03	86106.78	-2.1415824e-05	664915.06	156756.77	-0.00013056313	156757.97	664913.94	-9.934151e-05
0	0.5863301	0.5863284	-4.2226725e-10	0.017677719	0.017677717	0	86022.06	86021.81	-6.3057705e-05	665117.8	155743.17	-0.0003065395	155744.36	665116.56	-0.0003547911
0	0.5857457	0.58574396	2.7068413e-11	0.017324148	0.017324146	0	85936.32	85936.07	5.651398e-06	665321.1	154721.64	2.8383289e-05	154722.86	665319.94	8.514986e-05
0	0.58515847	0.5851567	-2.1113362e-10	0.016970582	0.016970582	0	85850.164	85849.91	-3.2123735e-05	665523.44	153697.19	-0.00028099454	153698.42	665522.2	-5.108992e-05
0	0.5845666	0.58456475	-3.41062e-10	0.016617043	0.016617043	0	85763.31	85763.07	-4.8780486e-05	665728.2	152663.73	-0.00032924613	152664.98	665726.94	-0.00015326975
0	0.5839725	0.5839707	8.661892e-11	0.01626348	0.01626348	0	85676.17	85675.91	1.6656752e-05	665928.3	151631.94	-9.9341505e-06	151633.2	665927.06	0.00016178474
0	0.5833722	0.5833704	5.4136827e-11	0.01590991	0.01590991	0	85588.086	85587.836	1.0707912e-05	666133.2	150586.62	-4.541326e-05	150587.92	666131.9	0.00010501817
0	0.58277005	0.58276826	-8.120524e-11	0.015556336	0.015556336	0	85499.766	85499.49	-1.4277216e-05	666333.2	149543.67	-0.00015610809	149544.97	666331.94	3.6898273e-05
0	0.58216304	0.5821612	-1.7323784e-10	0.015202776	0.0152027765	0	85410.69	85410.42	-2.6472339e-05	666537.1	148489.83	-0.00016604223	148491.16	666535.9	-8.798819e-05
0	0.581554	0.5815521	0	0.0148492055	0.0148492055	0	85321.34	85321.06	3.569304e-06	666736.94	147437.3	-0.00010076067	147438.62	666735.6	8.231153e-05
0	0.58093977	0.58093786	-3.1940728e-10	0.0144956745	0.0144956745	0	85231.23	85230.95	-4.7590718e-05	666938.06	146376.22	-0.0003065395	146377.56	666936.75	-0.00014475477
0	0.5803195	0.58031756	-3.5188938e-10	0.014142115	0.014142115	0	85140.22	85139.94	-5.2647232e-05	667142.2	145303.75	-0.0003831744	145305.14	667140.8	-0.00015326975
0	0.5796982	0.5796963	-5.3595456e-10	0.013788616	0.013788615	0	85049.06	85048.79	-7.971445e-05	667341.06	144235.02	-0.00047683922	144236.4	667339.75	-0.000310797
0	0.5790709	0.57906896	-3.1940728e-10	0.013435043	0.013435043	0	84957.05	84956.76	-3.747769e-05	667542.7	143155.22	-0.00022138965	143156.64	667541.4	-0.00020010218
0	0.5784391	0.57843715	-4.8723144e-11	0.01308148	0.01308148	0	84864.34	84864.06	-8.625818e-06	667745.75	142067.6	-4.9670754e-05	142069.03	667744.44	5.6766576e-06
0	0.57780546	0.5778035	-3.2482095e-10	0.012727953	0.012727953	0	84771.39	84771.086	-5.234979e-05	667944.06	140982.05	-0.00021997048	140983.53	667942.8	-0.0002469346
0	0.57716477	0.57716274	-2.165473e-11	0.012374384	0.012374384	0	84677.38	84677.086	-9.518144e-06	668147.44	139881.69	-4.257493e-05	139883.17	668146.1	-1.1353315e-05
0	0.5765211	0.5765191	-5.955051e-10	0.0120208245	0.012020824	0	84582.95	84582.65	-8.982748e-05	668348.1	138779.94	-0.00040588103	138781.44	668346.7	-0.0004740009
0	0.57587475	0.5758726	-6.4964194e-11	0.011667253	0.011667253	0	84488.11	84487.805	-8.328376e-06	668546.1	137676.97	-0.0001277248	137678.47	668544.75	0
0	0.5752219	0.57521987	-1.4075574e-10	0.011313695	0.011313695	0	84392.36	84392.05	-2.1415824e-05	668746.8	136562.48	-9.366485e-05	136564.03	668745.3	-8.231153e-05
0	0.574564	0.57456183	2.165473e-11	0.010960129	0.010960129	0	84295.805	84295.49	1.189768e-06	668949.2	135438.77	-4.257493e-05	135440.34	668947.8	6.8119894e-05
0	0.57390445	0.57390225	1.4616942e-10	0.010606611	0.010606611	0	84199.055	84198.74	1.5466983e-05	669147.1	134317.48	-2.8383289e-05	134319.08	669145.7	0.0001830722
0	0.57323897	0.5732368	-1.1910102e-10	0.010253061	0.010253061	0	84101.43	84101.1	-2.1415824e-05	669346.75	133186.27	-0.00013056313	133187.88	669345.3	-3.6898273e-05
0	0.57256836	0.5725661	-1.5699679e-10	0.009899495	0.009899493	0	84003.016	84002.71	-2.3795359e-05	669546.94	132047.08	-0.00019300636	132048.73	669545.5	-5.9604903e-05
0	0.5718937	0.5718914	-3.8978515e-10	0.009545928	0.009545928	0	83904.04	83903.72	-4.9970255e-05	669746.56	130902.87	-0.00029376702	130904.54	669745.1	-0.00024977294
0	0.5712144	0.5712121	-3.1940728e-10	0.009192374	0.009192374	0	83804.39	83804.055	-4.283165e-05	669946.06	129752.39	-0.00034059945	129754.086	669944.6	-0.0001277248
0	0.5705304	0.57052815	-3.9519882e-10	0.008838859	0.008838858	0	83704.05	83703.7	-5.7108864e-05	670145.25	128595.68	-0.00038885104	128597.414	670143.7	-0.00014475477
0	0.5698415	0.56983924	-3.085799e-10	0.008485291	0.00848529	0	83602.97	83602.63	-4.283165e-05	670344.6	127431.81	-0.00032215033	127433.555	670343.1	-0.0001277248
0	0.5691475	0.56914514	-4.330946e-11	0.00813174	0.00813174	0	83501.15	83500.805	-7.138608e-06	670544.4	126260.31	-7.9473204e-05	126262.09	670542.8	-8.514987e-06
0	0.5684479	0.56844556	-3.1399358e-10	0.0077781687	0.007778168	0	83398.516	83398.18	-4.8185604e-05	670745.7	125079.65	-0.00033776113	125081.44	670744.1	-0.0001078565
0	0.56774557	0.5677432	-2.760978e-10	0.007424603	0.0074246028	0	83295.47	83295.12	-4.5211185e-05	670942.4	123899.69	-0.00035195277	123901.516	670940.9	-8.089237e-05
0	0.5670374	0.5670351	-1.08273654e-10	0.0070710573	0.0070710573	0	83191.58	83191.23	-1.6656752e-05	671141.1	122709.43	-0.00020577884	122711.29	671139.6	4.825159e-05
0	0.5663236	0.5663212	-1.0285997e-10	0.0067175217	0.0067175217	0	83086.84	83086.49	-1.8441404e-05	671340.6	121510.49	-0.000113533155	121512.35	671339.1	-5.6766577e-05