# t (s)	mx ()	my ()	mz ()	B_extx (T)	B_exty (T)	B_extz (T)	m_fullx (A/m)	m_fully (A/m)	m_fullz (A/m)	m_full.region1x (A/m)	m_full.region1y (A/m)	m_full.region1z (A/m)	m_full.region2x (A/m)	m_full.region2y (A/m)	m_full.region2z (A/m)
0	0.64096886	0.6409663	-2.514571e-10	0.0707108	0.0707108	0	108756.766	108756.31	-4.4975382e-05	652800	244554.08	-0.00016276042	244556.5	652798.8	-0.00020182291
0	0.640689	0.6406867	-9.0027846e-11	0.07035724	0.07035724	0	108709.266	108708.87	-1.3413711e-05	653031.44	243930.98	-5.859375e-05	243933.2	653030.4	-4.8828126e-05
0	0.6404024	0.64040005	-2.3593505e-10	0.07000352	0.07000352	0	108660.62	108660.22	-4.418634e-05	653268.3	243292.83	-0.00020182291	243295.05	653267.25	-0.00013020834
0	0.6401181	0.64011574	-6.2088173e-10	0.06964998	0.06964998	0	108612.39	108611.984	-0.0001057316	653502.5	242660.53	-0.00044921876	242662.77	653501.56	-0.00044921876
0	0.6398301	0.63982785	-3.290673e-10	0.06929651	0.06929651	0	108563.53	108563.13	-5.760005e-05	653738.56	242021.44	-0.00021484375	242023.69	653737.56	-0.00028645832
0	0.6395404	0.639538	-3.7873785e-10	0.068943	0.068943	0	108514.34	108513.95	-6.391238e-05	653975.06	241379.1	-0.00025390624	241381.33	653974	-0.00025716145
0	0.6392489	0.6392466	6.2088173e-12	0.068589285	0.068589285	0	108464.92	108464.51	0	654211.75	240734.5	-2.6041667e-05	240736.77	654210.7	1.953125e-05
0	0.6389549	0.6389525	-2.3593505e-10	0.06823574	0.06823573	0	108415.02	108414.62	-4.024113e-05	654449.5	240085.02	-0.00020182291	240087.28	654448.44	-0.00013671875
0	0.6386609	0.63865846	6.8296986e-11	0.06788226	0.06788226	0	108365.12	108364.71	1.18356265e-05	654686.4	239436.53	2.6041667e-05	239438.8	654685.3	8.789063e-05
0	0.6383647	0.6383623	-3.4148495e-10	0.06752872	0.06752872	0	108314.88	108314.48	-5.9178135e-05	654923.56	238784.69	-0.00030598958	238786.98	654922.5	-0.00018229167
0	0.63806534	0.63806295	-1.9868215e-10	0.06717501	0.06717501	0	108264.08	108263.67	-3.866305e-05	655162.4	238126.75	-0.00012369792	238129.06	655161.3	-0.0001953125
0	0.63776594	0.6377635	-9.934108e-11	0.066821694	0.06682169	0	108213.28	108212.875	-1.8937002e-05	655400.1	237469.86	-0.00012695312	237472.19	655399.06	-1.953125e-05
0	0.6374636	0.63746125	-1.428028e-10	0.06646815	0.06646815	0	108161.99	108161.58	-2.7221942e-05	655639.06	236807.73	-0.00012369792	236810.05	655638	-8.138021e-05
0	0.63716006	0.6371576	8.692344e-11	0.066114426	0.066114426	0	108110.48	108110.07	1.6569878e-05	655877.9	236143.97	5.859375e-05	236146.3	655876.7	8.4635416e-05
0	0.63685304	0.6368506	-3.6632022e-10	0.06576091	0.06576092	0	108058.38	108057.97	-6.23343e-05	656117.9	235473.97	-0.00033854166	235476.31	656116.9	-0.00022460938
0	0.6365477	0.6365452	-2.2041301e-10	0.065407395	0.065407395	0	108006.56	108006.15	-3.629592e-05	656356.1	234808.27	-0.00015625	234810.6	656355	-0.00015299479
0	0.6362371	0.6362346	-2.9802322e-10	0.06505392	0.06505392	0	107953.875	107953.45	-5.0498675e-05	656596.9	234132.64	-0.00020182291	234134.98	656595.8	-0.00019856771
0	0.6359269	0.6359244	-8.692344e-11	0.06470021	0.06470021	0	107901.25	107900.83	-1.775344e-05	656836.44	233458.95	-1.3020834e-05	233461.33	656835.25	-0.0001171875
0	0.6356144	0.63561195	-1.8005569e-10	0.06434667	0.06434667	0	107848.22	107847.805	-2.9194545e-05	657076.3	232781.4	-0.0001171875	232783.81	657075.3	-0.00017903646
0	0.6352974	0.635295	-2.949188e-10	0.063993156	0.063993156	0	107794.44	107794.02	-4.6158944e-05	657318.44	232095.66	-0.00022786458	232098.03	657317.4	-0.00019856771
0	0.6349831	0.6349806	-1.6763807e-10	0.06363963	0.063639626	0	107741.12	107740.69	-2.6827422e-05	657557.9	231416.11	-7.8125e-05	231418.5	657556.8	-0.00016276042
0	0.63466185	0.63465935	-1.8626452e-10	0.06328593	0.06328593	0	107686.6	107686.17	-2.9983588e-05	657800.94	230723.31	-0.00014973959	230725.7	657799.8	-8.4635416e-05
0	0.6343423	0.63433975	-5.463759e-10	0.06293258	0.06293258	0	107632.36	107631.945	-8.9161724e-05	658041.6	230035.05	-0.0005078125	230037.47	658040.56	-0.0002734375
0	0.63402134	0.63401884	-9.3132255e-12	0.062579066	0.062579066	0	107577.92	107577.49	-3.945209e-06	658282.7	229344.88	-7.161458e-05	229347.31	658281.56	7.161458e-05
0	0.6336968	0.63369423	-6.2088175e-11	0.062225346	0.062225353	0	107522.85	107522.414	-1.3413711e-05	658524.9	228648.27	-0.00010416667	228650.69	658523.8	1.6276043e-05
0	0.63336974	0.63336724	-3.7252904e-10	0.06187184	0.06187184	0	107467.35	107466.93	-6.430691e-05	658767.3	227947.92	-0.00021484375	227950.38	658766.25	-0.00028645832
0	0.6330424	0.63303983	-1.6142924e-10	0.061518297	0.061518297	0	107411.81	107411.4	-2.3671253e-05	659009.4	227247.58	-0.00015625	227250.03	659008.25	-7.486979e-05
0	0.632712	0.63270944	-3.5390257e-10	0.06116483	0.06116483	0	107355.75	107355.33	-5.9967177e-05	659252.3	226542.03	-0.00016927083	226544.48	659251.2	-0.00035481772
0	0.63237953	0.632377	-3.3527614e-10	0.060811117	0.06081113	0	107299.34	107298.914	-5.9178135e-05	659495.4	225833.5	-0.0003515625	225836	659494.25	-0.00015625
0	0.63204604	0.6320435	-1.8936892e-10	0.06045762	0.06045762	0	107242.75	107242.33	-3.156167e-05	659738.1	225123.86	-0.00010416667	225126.34	659737	-0.00018880208
0	0.63170964	0.63170713	-1.11758706e-10	0.060104057	0.060104057	0	107185.68	107185.26	-1.735892e-05	659981.7	224409.36	-9.1145834e-05	224411.84	659980.56	-4.2317708e-05
0	0.6313711	0.6313686	-7.761022e-11	0.05975056	0.05975056	0	107128.24	107127.8	-1.5780835e-05	660225.6	223691.38	-3.2552085e-05	223693.88	660224.56	-6.510417e-05
0	0.6310306	0.63102806	-3.4148495e-10	0.05939685	0.05939685	0	107070.47	107070.03	-5.3654843e-05	660469.6	222970.62	-0.00020833334	222973.14	660468.56	-0.00024739583
0	0.63068616	0.6306836	-2.3593505e-10	0.059043474	0.059043474	0	107012.02	107011.58	-3.945209e-05	660715.1	222243	-0.00018229167	222245.52	660714	-0.00020182291
0	0.6303428	0.6303401	-2.3283065e-11	0.05868997	0.05868997	0	106953.75	106953.305	0	660958.75	221518.45	-9.765625e-05	221521.02	660957.7	4.8828126e-05
0	0.629995	0.62999237	-3.5390257e-10	0.05833626	0.05833626	0	106894.74	106894.3	-5.9178135e-05	661204.2	220786.23	-0.0002799479	220788.77	661203.06	-0.00021809895
0	0.6296473	0.6296447	6.8296986e-11	0.057982784	0.057982784	0	106835.75	106835.3	1.2624669e-05	661448.25	220055.33	-6.510417e-05	220057.89	661447.2	0.00021158854
0	0.6292968	0.62929416	-2.7939678e-10	0.05762919	0.057629183	0	106776.28	106775.836	-4.7342506e-05	661693.2	219319.77	-0.0002734375	219322.33	661692.1	-9.765625e-05
0	0.62894386	0.62894136	-1.5522043e-10	0.057275694	0.057275694	0	106716.41	106715.96	-2.6827422e-05	661938.4	218580.53	-0.00015299479	218583.14	661937.25	-8.4635416e-05
0	0.6285884	0.6285857	-2.825012e-10	0.05692205	0.05692205	0	106656.07	106655.63	-4.8920592e-05	662184.2	217836.95	-0.00011067709	217839.56	662183.06	-0.00028320312
0	0.6282309	0.6282283	-2.1109979e-10	0.056568563	0.056568563	0	106595.42	106594.98	-3.511236e-05	662429.94	217090.78	-2.6041667e-05	217093.39	662428.75	-0.00026041668
0	0.6278705	0.62786776	-2.5766592e-10	0.05621495	0.05621495	0	106534.26	106533.82	-4.024113e-05	662676.06	216339.97	-0.00020833334	216342.56	662674.94	-0.00013671875
0	0.6275084	0.6275057	-3.1044087e-12	0.055861466	0.055861466	0	106472.836	106472.38	2.3671253e-06	662922.44	215586.66	0	215589.28	662921.4	2.2786458e-05
0	0.627145	0.62714237	-2.918144e-10	0.055507775	0.055507775	0	106411.17	106410.73	-4.8920592e-05	663168.3	214832.08	-0.00026041668	214834.7	663167.25	-0.00018880208
0	0.62677735	0.62677467	1.428028e-10	0.05515436	0.05515436	0	106348.79	106348.34	2.3671253e-05	663415.56	214070.14	-1.3020834e-05	214072.78	663414.4	0.000234375
0	0.62641	0.6264073	-4.842877e-10	0.054800883	0.054800883	0	106286.45	106286	-8.403295e-05	663661.5	213309.88	-0.0004361979	213312.55	663660.4	-0.00028320312
0	0.6260381	0.62603545	-3.9115547e-10	0.05444719	0.05444719	0	106223.34	106222.89	-6.4701424e-05	663908.75	212541.89	-0.00015625	212544.58	663907.6	-0.00039713542
0	0.6256652	0.62566257	-4.967054e-10	0.054093733	0.054093726	0	106160.086	106159.625	-8.245487e-05	664155.6	211772.98	-0.0003938802	211775.66	664154.5	-0.00028645832
0	0.62529004	0.6252873	-1.2107193e-10	0.05374007	0.05374007	0	106096.42	106095.96	-2.2882212e-05	664402.6	211000.73	-7.8125e-05	211003.42	664401.44	-0.00013020834
0	0.6249121	0.62490946	8.3819035e-11	0.053386603	0.053386603	0	106032.31	106031.85	1.6569878e-05	664649.8	210224.52	9.1145834e-05	210227.17	664648.75	1.953125e-05
0	0.62453127	0.6245285	-1.9402553e-10	0.053032964	0.053032964	0	105967.69	105967.23	-3.3139757e-05	664897.75	209443.31	-0.00016927083	209446.03	664896.75	-0.00011067709
0	0.6241487	0.624146	-3.8494666e-10	0.052679505	0.052679505	0	105902.766	105902.32	-6.391238e-05	665145.3	208660.14	-0.00035807292	208662.84	665144.25	-0.00017578126
0	0.6237635	0.62376076	-3.0112762e-10	0.05232583	0.05232583	0	105837.414	105836.945	-5.2471278e-05	665393.06	207873.06	-0.0001953125	207875.8	665392.06	-0.00024739583
0	0.62337583	0.62337303	-5.2464505e-10	0.05197238	0.05197238	0	105771.625	105771.16	-8.580829e-05	665641.4	207082	-0.0003841146	207084.73	665640.2	-0.00034179687
0	0.622986	0.6229833	-4.5634807e-10	0.05161869	0.05161869	0	105705.51	105705.03	-8.442747e-05	665889.1	206288.66	-0.00029947917	206291.39	665888.06	-0.0003841146
0	0.622593	0.62259024	1.8626451e-11	0.051265243	0.051265243	0	105638.8	105638.336	3.945209e-06	666137.7	205489.69	-3.90625e-05	205492.45	666136.6	7.161458e-05
0	0.6221987	0.62219596	-4.1288634e-10	0.050911784	0.050911784	0	105571.9	105571.44	-7.259184e-05	666385.6	204689.73	-0.00020182291	204692.48	666384.56	-0.00040364583
0	0.6218014	0.6217987	-1.3038516e-10	0.050558098	0.050558098	0	105504.484	105504.02	-1.9726045e-05	666634	203885.14	-0.00022786458	203887.9	666632.94	5.5338543e-05
0	0.62140083	0.6213981	-2.949188e-10	0.050204657	0.05020466	0	105436.53	105436.07	-5.2076757e-05	666882.9	203075.52	-0.0002734375	203078.31	666881.8	-0.00016927083
0	0.6209982	0.62099546	-5.2464505e-10	0.04985096	0.04985096	0	105368.21	105367.74	-8.9161724e-05	667131.7	202263.05	-0.00041015624	202265.81	667130.7	-0.00033854166
0	0.62059337	0.6205905	-4.656613e-11	0.049497515	0.049497515	0	105299.51	105299.03	-5.9178133e-06	667380.4	201447.38	-3.90625e-05	201450.17	667379.4	3.90625e-05
0	0.6201859	0.6201831	-4.5013923e-10	0.049143888	0.049143888	0	105230.375	105229.91	-7.4169926e-05	667629.06	200628.34	-0.000234375	200631.12	667628.06	-0.00039713542
0	0.61977553	0.6197728	2.6387473e-10	0.04879043	0.048790425	0	105160.75	105160.29	4.2608255e-05	667878	199804.9	0.00018880208	199807.72	667877.06	0.00020833334
0	0.6193628	0.6193599	-3.1044087e-11	0.048436742	0.048436742	0	105090.695	105090.234	-8.67946e-06	668127.2	198977.78	-9.1145834e-05	198980.6	668126.06	4.5572917e-05
0	0.61894727	0.61894447	2.173086e-11	0.048083298	0.048083298	0	105020.22	105019.734	3.1561672e-06	668376.3	198147	-7.161458e-05	198149.84	668375.1	0.00010416667
0	0.61852825	0.61852545	-5.2774948e-11	0.04772962	0.04772962	0	104949.12	104948.64	-1.1046585e-05	668625.8	197310.88	-0.00010416667	197313.73	668624.7	2.9296874e-05
0	0.6181084	0.6181056	5.432715e-11	0.047376156	0.047376156	0	104877.875	104877.4	3.1561672e-06	668874.6	196474.22	3.90625e-05	196477.06	668873.56	2.2786458e-05
0	0.6176846	0.61768186	-3.7252902e-11	0.04702269	0.047022693	0	104805.97	104805.49	-3.1561672e-06	669124	195631.6	-9.1145834e-05	195634.47	669122.9	9.1145834e-05
0	0.6172586	0.61725575	3.4148493e-11	0.046669014	0.046669014	0	104733.695	104733.21	7.101376e-06	669373.1	194786.05	-6.510417e-05	194788.94	669372.06	0.0001171875
0	0.61682904	0.61682624	-2.173086e-10	0.046315562	0.046315562	0	104660.81	104660.32	-4.1819214e-05	669622.8	193934.95	-0.00017578126	193937.84	669621.75	-0.00016927083
0	0.61639607	0.6163932	-2.3593505e-10	0.045961883	0.045961883	0	104587.336	104586.86	-4.1819214e-05	669872.7	193078.92	-0.0002734375	193081.83	669871.6	-4.5572917e-05
0	0.6159628	0.61596	1.1641532e-11	0.04560842	0.04560842	0	104513.82	104513.336	1.3808232e-06	670121.6	192223.5	6.510417e-06	192226.39	670120.5	5.5338543e-05
0	0.6155252	0.6155224	-2.856056e-10	0.04525481	0.04525481	0	104439.586	104439.1	-4.7342506e-05	670371.25	191361.17	-0.000234375	191364.12	670370.1	-0.00016601563
0	0.6150854	0.6150827	-2.0023436e-10	0.044901334	0.044901334	0	104364.97	104364.48	-3.077263e-05	670620.2	190496.45	-0.00022786458	190499.36	670619.1	-1.3020834e-05
0	0.61464196	0.6146391	8.3819035e-11	0.04454767	0.04454767	0	104289.71	104289.22	1.4991794e-05	670870.06	189625.83	6.510417e-05	189628.77	670868.94	8.4635416e-05
0	0.614196	0.61419314	-1.8936892e-10	0.04419421	0.04419421	0	104214.04	104213.555	-2.9194545e-05	671119.4	188752.14	-0.00014973959	188755.05	671118.4	-8.138021e-05
0	0.6137471	0.6137444	-1.11758706e-10	0.04384055	0.04384055	0	104137.875	104137.39	-2.1304128e-05	671368.9	187874.23	-0.00012369792	187877.2	671367.8	-7.8125e-05
0	0.61329496	0.61329216	-7.1401396e-10	0.043487072	0.043487065	0	104061.16	104060.67	-0.00012387957	671618.25	186991.7	-0.0005143229	186994.67	671617.25	-0.0005566406
0	0.61284065	0.6128378	-3.3527614e-10	0.043133594	0.043133594	0	103984.07	103983.59	-5.5627446e-05	671867.44	186106.5	-0.00033203125	186109.47	671866.4	-0.00012369792
0	0.612383	0.61238015	-3.228585e-10	0.04277993	0.04277993	0	103906.43	103905.94	-5.6021967e-05	672116.75	185216.5	-0.00030598958	185219.5	672115.75	-0.00016927083
0	0.6119222	0.6119194	-1.8781672e-10	0.042426452	0.042426452	0	103828.234	103827.76	-3.2153454e-05	672365.9	184322.19	-0.00018229167	184325.19	672364.94	-8.138021e-05
0	0.61145866	0.61145574	-1.3581787e-10	0.042072807	0.042072807	0	103749.57	103749.086	-1.9726045e-05	672615.06	183424	-0.00015625	183426.98	672614	0
0	0.61099166	0.6109888	-2.0489097e-10	0.04171932	0.04171932	0	103670.35	103669.86	-3.3731536e-05	672864.1	182521.19	-0.00021484375	182524.17	672863.1	-8.4635416e-05
0	0.61052114	0.61051834	-5.3085386e-10	0.041365735	0.041365735	0	103590.51	103590.03	-8.521651e-05	673113.6	181613.06	-0.0003125	181616.08	673112.56	-0.00041666668
0	0.6100488	0.6100459	-5.681068e-10	0.04101225	0.04101225	0	103510.37	103509.875	-9.4290495e-05	673362.2	180703.08	-0.00041666668	180706.11	673361.25	-0.0004264323
0	0.6095722	0.6095693	4.967054e-11	0.040658597	0.040658597	0	103429.49	103429.01	8.4821995e-06	673611.4	179786.69	3.2552085e-05	179789.69	673610.4	3.90625e-05
0	0.6090932	0.6090903	-1.1796752e-10	0.04030513	0.04030513	0	103348.22	103347.74	-1.8937002e-05	673860.06	178867.47	-0.00020833334	178870.5	673859	5.859375e-05
0	0.60861063	0.6086077	-5.2774946e-10	0.039951473	0.039951473	0	103266.34	103265.85	-8.758364e-05	674108.6	177943.22	-0.00044270835	177946.27	674107.7	-0.00030598958
0	0.6081256	0.6081228	-3.1975408e-10	0.039597984	0.039597984	0	103184.05	103183.555	-5.720553e-05	674356.9	177015.9	-0.00024739583	177018.97	674355.8	-0.00024739583
0	0.6076365	0.6076336	-9.65471e-10	0.0392445	0.0392445	0	103101.055	103100.56	-0.00016076726	674605.5	176082.56	-0.0006640625	176085.62	674604.5	-0.0007552083
0	0.6071425	0.6071397	-5.898376e-11	0.038890846	0.038890846	0	103017.25	103016.75	-1.3413711e-05	674854.44	175142.11	-1.3020834e-05	175145.16	674853.5	-4.2317708e-05
0	0.6066488	0.60664594	1.9557773e-10	0.03853735	0.03853735	0	102933.46	102932.97	3.3139757e-05	675101.75	174203.47	-3.2552085e-05	174206.53	675100.8	0.00035807292
0	0.6061499	0.606147	-1.466833e-10	0.038183723	0.038183723	0	102848.81	102848.32	-2.3671253e-05	675349.75	173256.97	-0.00012369792	173260.05	675348.75	-6.8359375e-05
0	0.605648	0.6056451	-1.3659397e-10	0.03783023	0.03783023	0	102763.664	102763.17	-1.9331525e-05	675597.44	172306.69	-7.8125e-05	172309.77	675596.5	-5.859375e-05
0	0.60514253	0.60513955	-2.5999422e-10	0.03747658	0.03747658	0	102677.88	102677.39	-4.379182e-05	675845	171351.39	-0.00021484375	171354.48	675844.06	-0.00014322916
0	0.60463375	0.6046307	-4.1055803e-10	0.037123162	0.037123162	0	102591.55	102591.055	-7.101376e-05	676092.4	170391.7	-0.0002799479	170394.81	676091.4	-0.00033854166
0	0.60412097	0.6041181	-9.6236664e-11	0.036769524	0.036769524	0	102504.555	102504.055	-1.4991794e-05	676339.75	169426.5	1.953125e-05	169429.6	676338.75	-0.00014322916
0	0.6036057	0.6036028	-4.148266e-10	0.036416043	0.036416043	0	102417.13	102416.64	-7.022472e-05	676586.3	168458.62	-0.0003125	168461.75	676585.3	-0.00030598958
0	0.60308665	0.6030837	-3.1975408e-10	0.0360624	0.0360624	0	102329.06	102328.58	-5.0893195e-05	676832.94	167485.31	-0.00026041668	167488.44	676832	-0.00020507812
0	0.60256356	0.60256064	-3.1044087e-10	0.0357089	0.0357089	0	102240.29	102239.8	-5.0893195e-05	677079.56	166506.19	-0.00014973959	166509.33	677078.75	-0.00029296876
0	0.6020371	0.60203415	-1.459072e-10	0.035355397	0.0353554	0	102150.97	102150.47	-2.4854817e-05	677325.9	165522.88	-0.00024739583	165526.03	677324.94	9.765625e-05
0	0.6015078	0.60150486	-1.05549895e-10	0.03500176	0.03500176	0	102061.164	102060.67	-2.199454e-05	677571.5	164536.31	-6.510417e-05	164539.44	677570.56	-8.138021e-05
0	0.6009736	0.6009707	-2.0178656e-10	0.034648255	0.034648255	0	101970.53	101970.04	-3.3139757e-05	677817.5	163542.4	-0.00024739583	163545.56	677816.56	-3.580729e-05
0	0.600437	0.6004341	-2.7318794e-10	0.034294643	0.034294643	0	101879.48	101878.98	-4.5369903e-05	678062.6	162546.02	-0.000234375	162549.16	678061.6	-0.00013671875
0	0.59989613	0.5998932	-3.6942463e-10	0.033941127	0.03394113	0	101787.695	101787.2	-6.667403e-05	678307.7	161543.7	-0.00034505207	161546.86	678306.75	-0.00018229167
0	0.59935	0.59934705	-2.8871e-10	0.033587504	0.033587504	0	101695.04	101694.54	-4.901922e-05	678553	160533.8	-0.0002734375	160536.95	678552.2	-0.00014648438
0	0.5988035	0.59880066	-2.9647101e-10	0.033234075	0.033234075	0	101602.31	101601.83	-4.551785e-05	678796.7	159525.08	-0.00026041668	159528.27	678795.8	-0.0001595052
0	0.5982508	0.5982479	-3.3527614e-10	0.032880455	0.03288046	0	101508.52	101508.05	-5.5134296e-05	679041.1	158506.88	-0.00026041668	158510.05	679040.2	-0.00019856771
0	0.5976954	0.59769255	7.29536e-11	0.03252696	0.03252696	0	101414.305	101413.805	1.6569878e-05	679284.56	157485.81	-5.859375e-05	157489	679283.75	0.00019856771
0	0.5971357	0.59713274	-7.29536e-11	0.032173336	0.03217334	0	101319.32	101318.83	-1.4202752e-05	679527.94	156458.78	-6.510417e-05	156461.98	679527.06	-2.6041667e-05
0	0.59657246	0.5965696	-2.4447216e-10	0.031819817	0.031819813	0	101223.77	101223.27	-4.1030173e-05	679770.75	155427.55	-0.00032552084	155430.75	679769.9	1.953125e-05
0	0.5960051	0.5960022	-5.3395827e-10	0.03146629	0.03146629	0	101127.49	101126.99	-8.955624e-05	680013.4	154390.6	-0.0004231771	154393.78	680012.5	-0.00041341147
0	0.5954337	0.5954309	-3.259629e-10	0.031112673	0.031112673	0	101030.55	101030.055	-5.326032e-05	680255.4	153348.69	-0.00028645832	153351.89	680254.5	-0.00020833334
0	0.5948588	0.5948559	-2.483527e-10	0.030759148	0.030759148	0	100932.984	100932.49	-4.1276748e-05	680496.94	152302.08	-0.00010416667	152305.28	680496.2	-0.00030273438
0	0.5942792	0.5942763	-1.0244548e-10	0.030405559	0.030405564	0	100834.66	100834.164	-1.8937002e-05	680738.25	151249.5	0	151252.69	680737.4	-0.0001595052
0	0.5936958	0.59369296	-3.3993275e-10	0.030052029	0.030052029	0	100735.67	100735.18	-5.6416487e-05	680979.1	150191.88	-0.00023274739	150195.1	680978.4	-0.00025716145
0	0.59310853	0.5931056	-9.6236664e-11	0.029698426	0.029698426	0	100636.01	100635.52	-1.3512341e-05	681219.4	149129.33	-0.000107421874	149132.55	681218.5	0
0	0.5925174	0.5925145	-3.290673e-10	0.029344985	0.029344985	0	100535.72	100535.23	-5.6021967e-05	681459	148062.19	-0.00035807292	148065.4	681458.2	-0.00013671875
0	0.5919218	0.5919189	-2.2817404e-10	0.028991392	0.028991392	0	100434.65	100434.17	-4.1030173e-05	681698.2	146989.05	-0.00020833334	146992.25	681697.5	-0.00014322916
0	0.5913218	0.5913189	-2.2041301e-10	0.028637847	0.028637847	0	100332.85	100332.36	-3.3928798e-05	681937	145910.22	-0.00020833334	145913.44	681936.2	-7.486979e-05
0	0.59071714	0.5907142	-7.761022e-11	0.028284281	0.028284281	0	100230.25	100229.766	-1.1638366e-05	682175.56	144825.14	-9.1145834e-05	144828.39	682174.75	3.90625e-05
0	0.5901093	0.5901064	-3.290673e-10	0.027930733	0.027930733	0	100127.125	100126.65	-5.5824705e-05	682413	143736.8	-0.00026041668	143740.03	682412.2	-0.00022135417
0	0.58949685	0.589494	-2.7318794e-10	0.02757718	0.02757718	0	100023.21	100022.72	-4.43836e-05	682650	142642.36	-0.0003125	142645.6	682649.25	-4.8828126e-05
0	0.58887976	0.58887684	-3.1664968e-10	0.027223594	0.027223594	0	99918.5	99918.01	-5.326032e-05	682886.5	141541.88	-0.0001953125	141545.1	682885.75	-0.00026041668
0	0.58825856	0.5882557	3.880511e-11	0.026870035	0.026870035	0	99813.09	99812.61	9.468501e-06	683122.4	140436.4	-5.2083335e-05	140439.66	683121.56	0.00014973959
0	0.58763313	0.58763033	-3.337239e-10	0.026516482	0.026516482	0	99706.97	99706.49	-5.661375e-05	683357.6	139325.6	-0.00044270835	139328.83	683356.8	-4.5572917e-05
0	0.58700216	0.5869993	-2.2506962e-10	0.026162915	0.026162915	0	99599.914	99599.43	-3.7775375e-05	683592.44	138207.39	-0.00021484375	138210.61	683591.7	-8.4635416e-05
0	0.5863668	0.5863639	-2.825012e-10	0.025809346	0.025809346	0	99492.1	99491.63	-4.9709633e-05	683826.5	137083.72	-0.00045247396	137086.95	683825.8	3.2552085e-05
0	0.58572835	0.5857256	-1.9557773e-10	0.025455892	0.025455892	0	99383.766	99383.305	-2.9983588e-05	684059.5	135956.95	-0.00017578126	135960.2	684058.75	-0.00010091146
0	0.58508533	0.5850826	-1.2417635e-10	0.025102329	0.025102329	0	99274.69	99274.21	-2.0515086e-05	684291.8	134824.48	-9.440104e-05	134827.69	684291.1	-7.161458e-05
0	0.5844368	0.58443385	-6.8296986e-11	0.024748757	0.024748756	0	99164.62	99164.14	-7.101376e-06	684523.8	133684.39	-0.00017578126	133687.6	684523.06	0.00011067709
0	0.58378375	0.58378094	-3.4924597e-10	0.024395213	0.024395213	0	99053.81	99053.34	-6.0756218e-05	684754.9	132539.05	-0.00032877605	132542.3	684754.2	-0.00016601563
0	0.5831261	0.5831234	-1.6841417e-10	0.024041649	0.024041649	0	98942.24	98941.766	-2.5249337e-05	684985.06	131388.28	-7.161458e-05	131391.5	684984.44	-0.00013020834
0	0.582463	0.5824602	-7.916242e-11	0.023688078	0.023688078	0	98829.73	98829.25	-1.51890545e-05	685214.8	130230.15	-0.00012369792	130233.36	685214.06	1.953125e-05
0	0.58179605	0.5817933	-2.949188e-11	0.023334507	0.023334507	0	98716.56	98716.086	-1.9726045e-07	685443.44	129067.81	6.510417e-06	129071.04	685442.75	-9.765625e-06
0	0.5811239	0.5811212	-1.5522044e-11	0.022980941	0.022980941	0	98602.516	98602.05	-9.863022e-07	685671.3	127898.93	-9.1145834e-05	127902.17	685670.7	0.00010416667
0	0.5804466	0.5804439	-1.1563922e-10	0.022627406	0.022627406	0	98487.6	98487.13	-1.8542481e-05	685898.5	126723.6	-0.00018229167	126726.84	685897.8	2.6041667e-05
0	0.5797651	0.5797624	-2.2895014e-10	0.022273835	0.022273835	0	98371.96	98371.49	-3.6887704e-05	686124.56	125543.38	-6.510417e-05	125546.62	686123.94	-0.00025716145
0	0.57907814	0.5790755	-6.7520885e-11	0.021920275	0.021920275	0	98255.414	98254.945	-9.07398e-06	686349.75	124356.55	-7.8125e-05	124359.77	686349.1	-3.2552084e-06
0	0.57838625	0.5783835	-4.9049653e-10	0.021566797	0.021566797	0	98138	98137.54	-7.989048e-05	686574.1	123163.36	-0.00021321615	123166.586	686573.6	-0.0005013021
0	0.5776888	0.57768613	-2.483527e-10	0.021213226	0.021213226	0	98019.664	98019.2	-4.5369903e-05	686797.7	121963.38	-0.00028645832	121966.586	686797.1	-9.1145834e-05
0	0.5769869	0.5769842	3.275151e-10	0.020859662	0.02085966	0	97900.57	97900.11	5.5430184e-05	687020.2	120758.305	0.00012695312	120761.52	687019.56	0.00041015624
0	0.57627976	0.57627714	-3.1509748e-10	0.020506125	0.020506125	0	97780.58	97780.125	-5.799457e-05	687241.6	119546.84	-0.00017578126	119550.055	687240.94	-0.00033203125
0	0.5755671	0.57556444	-1.2107193e-10	0.020152565	0.020152565	0	97659.66	97659.21	-1.8345221e-05	687462.1	118328.62	-0.00016927083	118331.83	687461.56	1.6276043e-05
0	0.5748481	0.5748454	-2.0954757e-10	0.019798992	0.019798992	0	97537.67	97537.22	-3.6493184e-05	687681.8	117102.32	-9.440104e-05	117105.52	687681.3	-0.00022786458
0	0.57412636	0.5741237	-3.4148495e-10	0.019445423	0.019445423	0	97415.195	97414.75	-5.799457e-05	687899.94	115873.8	-0.00034179687	115876.98	687899.4	-0.00013020834
0	0.5733973	0.5733946	-1.4901161e-10	0.019091861	0.019091861	0	97291.49	97291.04	-2.7517832e-05	688117.4	114635.6	-0.00010091146	114638.77	688116.9	-0.00014322916
0	0.57266396	0.5726614	-8.304293e-11	0.01873829	0.01873829	0	97167.08	97166.64	-1.1342476e-05	688333.4	113393.04	-0.00016276042	113396.21	688332.94	8.4635416e-05
0	0.5719249	0.57192236	-1.4939966e-10	0.018384762	0.018384762	0	97041.664	97041.234	-3.116715e-05	688548.3	112143.414	-0.00013346355	112146.57	688547.9	-0.00012369792
0	0.57117856	0.57117593	-3.5778308e-10	0.0180312	0.0180312	0	96915.02	96914.586	-5.6021967e-05	688762.7	110884.12	-0.0003125	110887.28	688762.25	-0.00017578126
0	0.57042927	0.57042676	-4.0551337e-10	0.0176777	0.0176777	0	96787.9	96787.47	-6.780828e-05	688975.06	109622.87	-0.0004329427	109626.02	688974.56	-0.00012369792
0	0.5696731	0.5696706	-3.531265e-11	0.017324127	0.017324127	0	96659.6	96659.164	-8.97535e-06	689186.44	108352.73	-0.000107421874	108355.87	689186.1	7.8125e-05
0	0.5689116	0.56890917	-2.6174043e-10	0.016970564	0.016970566	0	96530.41	96529.97	-4.226305e-05	689396.6	107076.56	-0.00023763021	107079.71	689396.2	-0.00012369792
0	0.5681439	0.56814134	-3.3915665e-10	0.016617037	0.016617037	0	96400.125	96399.695	-5.7649366e-05	689605.6	105792.6	-0.00028645832	105795.734	689605.25	-0.00020833334
0	0.56737083	0.5673683	-5.386149e-10	0.01626348	0.01626348	0	96268.95	96268.52	-8.8668574e-05	689813.25	104502.76	-0.000390625	104505.88	689812.9	-0.00041666668
0	0.566592	0.56658953	-5.1843624e-10	0.015909908	0.015909906	0	96136.8	96136.39	-8.5117885e-05	690019.44	103206.24	-0.00048502604	103209.34	690019.06	-0.0002766927
0	0.565807	0.56580454	-1.1796752e-10	0.015556336	0.015556336	0	96003.61	96003.19	-1.814796e-05	690224.5	101902.2	-4.8828126e-05	101905.32	690224.1	-0.000107421874
0	0.5650156	0.5650131	-7.5669956e-11	0.015202779	0.015202781	0	95869.336	95868.92	-1.2427408e-05	690427.9	100590.79	-0.00011067709	100593.88	690427.6	3.2552085e-05
0	0.5642183	0.5642158	1.201018e-10	0.014849213	0.014849213	0	95734.04	95733.63	1.6717822e-05	690630.1	99272.35	1.953125e-05	99275.43	690629.9	0.00011393229
0	0.56341547	0.56341296	-4.4703483e-10	0.014495696	0.014495696	0	95597.83	95597.4	-7.653706e-05	690830.75	97947.766	-0.00048828125	97950.83	690830.44	-0.00015299479
0	0.5626061	0.5626038	-1.2068388e-10	0.014142141	0.014142141	0	95460.5	95460.09	-2.3671253e-05	691029.9	96615.66	-0.00022460938	96618.72	691029.56	7.8125e-05
0	0.5617903	0.56178784	-3.8184225e-10	0.01378859	0.01378859	0	95322.07	95321.66	-6.6279514e-05	691227.6	95275.7	-0.00028727212	95278.76	691227.4	-0.00028645832
0	0.5609682	0.5609658	-3.853347e-10	0.013435017	0.013435017	0	95182.59	95182.18	-6.475074e-05	691423.7	93928.73	-0.00022135417	93931.76	691423.44	-0.00033203125
0	0.56013966	0.56013733	-2.0450291e-10	0.0130814575	0.0130814575	0	95042	95041.6	-3.59014e-05	691618.25	92574.31	-0.000234375	92577.33	691618	-7.8125e-05
0	0.559305	0.5593027	-4.284084e-10	0.012727946	0.012727946	0	94900.375	94899.984	-7.535349e-05	691811.06	91212.88	-0.00037760416	91215.88	691810.8	-0.00023111979
0	0.5584648	0.55846256	-1.8199596e-10	0.012374379	0.012374379	0	94757.836	94757.44	-3.3139757e-05	692002	89845.72	-0.00029622397	89848.7	692001.9	5.859375e-05
0	0.557617	0.5576148	-1.7811544e-10	0.0120208245	0.0120208245	0	94613.97	94613.6	-3.077263e-05	692191.6	88469.27	-0.00029947917	88472.23	692191.4	6.8359375e-05
0	0.5567627	0.55676043	-8.692344e-11	0.011667253	0.011667253	0	94469.01	94468.625	-1.5780835e-05	692379.4	87085.375	-0.00020833334	87088.32	692379.2	9.1145834e-05
0	0.55590105	0.5558988	-3.1820188e-10	0.011313703	0.011313703	0	94322.81	94322.43	-5.5035664e-05	692565.44	85692.99	-0.00036783854	85695.93	692565.3	-7.161458e-05
0	0.55503434	0.5550321	-4.0667752e-10	0.0109601375	0.0109601375	0	94175.75	94175.38	-6.894253e-05	692749.5	84295.67	-0.0002766927	84298.59	692749.3	-0.0003190104
0	0.5541599	0.55415773	-5.3551047e-10	0.010606613	0.010606613	0	94027.375	94027.01	-9.468501e-05	692931.75	82889.12	-0.00033528646	82892.016	692931.6	-0.00048828125
0	0.5532783	0.55327624	-2.142042e-10	0.0102530625	0.0102530625	0	93877.81	93877.44	-3.550688e-05	693112.2	81474.6	-0.00026041668	81477.48	693112.06	-2.6041667e-05
0	0.5523903	0.55238813	5.2774948e-11	0.009899495	0.009899496	0	93727.12	93726.76	7.495897e-06	693290.6	80052.91	9.765625e-06	80055.76	693290.56	7.161458e-05
0	0.55149454	0.55149245	-2.6465083e-10	0.009545931	0.009545931	0	93575.14	93574.77	-5.1287716e-05	693467.25	78622.24	-0.0002734375	78625.086	693467.06	-0.000107421874
0	0.55059206	0.55059	-3.608875e-10	0.009192381	0.009192381	0	93422.01	93421.65	-5.8191832e-05	693641.75	77184.32	-0.00044921876	77187.13	693641.6	-3.90625e-05
0	0.54968214	0.5496801	-7.233272e-10	0.008838849	0.00883885	0	93267.62	93267.27	-0.0001246686	693814.25	75737.99	-0.0007747396	75740.79	693814.2	-0.00028645832
0	0.5487653	0.54876333	-1.5832484e-10	0.008485282	0.008485283	0	93112.055	93111.72	-2.3276732e-05	693984.56	74284.12	-0.00015218099	74286.89	693984.56	-3.580729e-05
0	0.547841	0.547839	-1.2029583e-10	0.00813174	0.00813174	0	92955.23	92954.89	-1.9134264e-05	694152.75	72821.91	-0.00030029297	72824.664	694152.7	0.00013020834
0	0.5469093	0.5469073	-1.1951973e-10	0.007778168	0.007778168	0	92797.125	92796.79	-2.0515086e-05	694318.8	71351.445	-0.00020507812	71354.16	694318.75	5.859375e-05
0	0.5459697	0.5459679	-1.3504177e-10	0.0074246065	0.0074246065	0	92637.73	92637.39	-2.6235639e-05	694482.6	69872.41	-0.0001953125	69875.12	694482.56	6.510417e-06
0	0.5450232	0.54502124	-1.6142924e-10	0.0070710704	0.0070710704	0	92477.1	92476.79	-2.4065774e-05	694644.1	68385.695	-0.000107421874	68388.375	694644.06	-0.00014322916
0	0.54406893	0.544067	-4.284084e-10	0.0067175087	0.0067175087	0	92315.19	92314.875	-6.7857596e-05	694803.25	66890.58	-0.0003108724	66893.234	694803.2	-0.00028645832