# t (s)	mx ()	my ()	mz ()	B_extx (T)	B_exty (T)	B_extz (T)	m_fullx (A/m)	m_fully (A/m)	m_fullz (A/m)	m_full.region1x (A/m)	m_full.region1y (A/m)	m_full.region1z (A/m)	m_full.region2x (A/m)	m_full.region2y (A/m)	m_full.region2z (A/m)
0	0.6530692	0.653066	1.997561e-10	0.07071067	0.07071067	0	172596.84	172596	5.3571428e-05	626353.3	287941.03	0.00018412161	287943.5	626351.44	0.000125
0	0.6529864	0.65298617	-3.2218728e-10	0.07056918	0.07056919	0	172574.95	172574.92	-8.5459185e-05	626423.44	287757.6	-0.00027702702	287757.5	626423.06	-0.0001554054
0	0.65290195	0.6529022	-1.8042487e-10	0.07042789	0.07042789	0	172552.67	172552.73	-4.591837e-05	626498.56	287564.62	-0.00016216216	287564.22	626498.5	-8.783784e-05
0	0.6528156	0.65281576	-1.8042487e-10	0.070286386	0.070286386	0	172529.81	172529.88	-5.2933672e-05	626575.25	287366.88	-0.00013175675	287366.4	626575.2	-0.00012837838
0	0.65273005	0.65273035	-3.0929978e-10	0.07014502	0.07014502	0	172507.22	172507.3	-8.4821426e-05	626651.6	287170.9	-0.00022635135	287170.4	626651.5	-0.00020608108
0	0.652645	0.6526453	-4.510622e-10	0.07000351	0.07000352	0	172484.78	172484.84	-0.00012244898	626727.2	286976.34	-0.00031418918	286975.88	626727.06	-0.00034797296
0	0.6525581	0.65255827	-3.28631e-10	0.06986222	0.06986222	0	172461.77	172461.84	-9.375e-05	626804.2	286777.56	-0.0002787162	286777.1	626804.1	-0.00019932432
0	0.6524729	0.6524732	-1.8042487e-10	0.069720745	0.069720745	0	172439.27	172439.34	-5.0382652e-05	626880.06	286582.53	-0.00014527027	286582.06	626879.94	-0.000114864866
0	0.65238553	0.65238595	-2.7224825e-10	0.06957926	0.06957926	0	172416.2	172416.3	-7.3979594e-05	626956.7	286383.75	-0.0002483108	286383.3	626956.5	-0.00016554054
0	0.65230006	0.6523002	-3.28631e-10	0.06943794	0.06943794	0	172393.56	172393.64	-8.928571e-05	627032.8	286187.53	-0.0002956081	286187.1	627032.8	-0.00017250844
0	0.65221334	0.6522136	6.765933e-11	0.0692964	0.0692964	0	172370.66	172370.73	1.1479592e-05	627109.3	285989.75	6.756757e-05	285989.28	627109.25	3.0405405e-05
0	0.6521251	0.6521254	-1.3209678e-10	0.0691551	0.0691551	0	172347.34	172347.4	-3.252551e-05	627186.6	285789.03	-0.000118243246	285788.6	627186.6	-6.756757e-05
0	0.6520386	0.6520389	1.2565303e-10	0.0690136	0.0690136	0	172324.48	172324.58	3.1887754e-05	627262.75	285591.72	0.00019425676	285591.28	627262.7	6.7567566e-06
0	0.651951	0.65195125	-3.3185288e-10	0.06887212	0.068872124	0	172301.33	172301.4	-9.119898e-05	627339.44	285392.47	-0.0002331081	285392	627339.3	-0.00022972973
0	0.651864	0.65186423	-2.0619985e-10	0.06873082	0.06873082	0	172278.33	172278.4	-6.3137755e-05	627416.06	285194.03	-0.00010304054	285193.56	627416	-0.00021283784
0	0.6517756	0.65177584	-9.343431e-11	0.06858932	0.06858932	0	172254.98	172255.05	-3.125e-05	627493.2	284993.06	-2.195946e-05	284992.62	627493.06	-0.00013513514
0	0.6516886	0.6516889	-3.511841e-10	0.068447955	0.068447955	0	172231.98	172232.06	-9.311224e-05	627569.9	284794.62	-0.00025844594	284794.2	627569.75	-0.0002195946
0	0.6516006	0.6516009	-1.8686862e-10	0.06830648	0.06830648	0	172208.75	172208.81	-4.846939e-05	627646.5	284594.78	-6.25e-05	284594.38	627646.44	-0.00018243243
0	0.6515118	0.651512	-1.5464989e-10	0.06816515	0.068165146	0	172185.25	172185.33	-4.591837e-05	627723.5	284393.4	-0.000118243246	284392.94	627723.5	-0.000114864866
0	0.65142375	0.651424	-1.9331237e-10	0.068023674	0.068023674	0	172161.97	172162.05	-4.846939e-05	627800.1	284193.5	-0.0001233108	284193.03	627800.06	-0.0001554054
0	0.6513349	0.6513352	-1.0954367e-10	0.06788219	0.06788219	0	172138.52	172138.58	-1.7857143e-05	627877.6	283991.62	-8.445946e-05	283991.2	627877.56	-6.418919e-05
0	0.65124696	0.65124714	-2.5774982e-10	0.06774088	0.06774088	0	172115.25	172115.31	-7.142857e-05	627954	283792.1	-0.0002668919	283791.6	627953.94	-0.00013513514
0	0.6511568	0.65115696	-4.478403e-10	0.067599334	0.067599334	0	172091.44	172091.48	-0.00011543367	628031.6	283588.28	-0.0002956081	283587.8	628031.44	-0.00031418918
0	0.6510679	0.65106815	-1.5464989e-10	0.06745803	0.06745803	0	172067.94	172068.02	-4.336735e-05	628109	283386.53	-0.00014864864	283386.06	628108.9	-6.756757e-05
0	0.65097827	0.6509785	-1.192093e-10	0.06731653	0.06731653	0	172044.25	172044.31	-2.6785714e-05	628185.75	283184.22	-4.8986487e-05	283183.78	628185.7	-8.783784e-05
0	0.6508889	0.65088916	-2.835248e-10	0.06717506	0.06717506	0	172020.66	172020.7	-7.9081634e-05	628263	282981.88	-0.00018243243	282981.44	628262.94	-0.00020945945
0	0.6507985	0.6507988	-4.1884346e-10	0.06703376	0.06703376	0	171996.75	171996.83	-0.00010459184	628340.75	282777.56	-0.00023986486	282777.1	628340.7	-0.0003445946
0	0.6507093	0.6507096	-2.3197483e-10	0.066892266	0.066892266	0	171973.19	171973.23	-6.377551e-05	628418	282575.5	-0.00025337838	282575.03	628417.94	-9.7972974e-05
0	0.65061975	0.65062004	-4.832809e-11	0.066750884	0.066750884	0	171949.52	171949.58	-1.1160714e-05	628494.7	282373.53	-2.195946e-05	282373.06	628494.56	-2.7027027e-05
0	0.65052795	0.6505282	-3.1252165e-10	0.06660941	0.06660941	0	171925.23	171925.31	-7.8443874e-05	628572.94	282166.56	-0.00022635135	282166.1	628572.94	-0.00016891892
0	0.65043885	0.6504391	-4.1562156e-10	0.06646809	0.06646809	0	171901.7	171901.75	-0.000103635204	628649.7	281965.16	-0.00020945945	281964.7	628649.56	-0.0003918919
0	0.6503471	0.65034735	-3.2540914e-10	0.06632662	0.06632662	0	171877.45	171877.52	-8.5459185e-05	628727.5	281758.84	-0.00025	281758.38	628727.5	-0.00020945945
0	0.6502569	0.65025705	-2.384186e-10	0.06618514	0.06618514	0	171853.6	171853.66	-6.632653e-05	628804.94	281555.06	-7.2635135e-05	281554.62	628804.9	-0.0002837838
0	0.6501646	0.6501648	-1.5142802e-10	0.066043824	0.066043824	0	171829.2	171829.28	-4.145408e-05	628883.1	281347.72	-0.00010304054	281347.25	628883.06	-0.000108108106
0	0.6500742	0.6500744	-6.765933e-11	0.06590227	0.06590227	0	171805.33	171805.39	-1.7219389e-05	628960.5	281143.88	-7.6013515e-05	281143.4	628960.3	-3.3783785e-05
0	0.64998245	0.6499828	-1.5787176e-10	0.06576097	0.06576097	0	171781.1	171781.16	-4.7193877e-05	629038.3	280937.62	-0.000111486486	280937.2	629038.2	-0.00015202703
0	0.6498914	0.64989156	-8.376869e-11	0.065619476	0.065619476	0	171757	171757.06	-2.1683674e-05	629115.6	280732.75	3.3783785e-05	280732.3	629115.44	-0.00012837838
0	0.649798	0.6497983	-2.3197483e-10	0.06547816	0.06547816	0	171732.33	171732.39	-5.8673468e-05	629194.06	280523.56	-0.00017905406	280523.12	629194.06	-0.000114864866
0	0.6497069	0.6497072	-1.5142802e-10	0.0653367	0.0653367	0	171708.27	171708.33	-3.5714285e-05	629271.5	280318.66	-0.00014527027	280318.2	629271.44	-6.756757e-05
0	0.64961463	0.6496149	-8.699056e-11	0.06519521	0.06519521	0	171683.88	171683.94	-2.4234694e-05	629349.44	280111.56	-2.195946e-05	280111.06	629349.3	-8.445946e-05
0	0.649522	0.64952224	-1.6753739e-10	0.0650539	0.0650539	0	171659.38	171659.45	-4.4642857e-05	629427.3	279903.9	-8.783784e-05	279903.44	629427.25	-0.00014527027
0	0.6494284	0.6494286	-2.0297798e-10	0.06491235	0.06491235	0	171634.64	171634.7	-5.1020408e-05	629505.75	279694.44	-0.00013851351	279693.97	629505.7	-0.000118243246
0	0.6493363	0.64933646	-1.15987414e-10	0.06477103	0.06477103	0	171610.28	171610.34	-2.6785714e-05	629583.6	279487.6	-9.966216e-05	279487.1	629583.5	-6.313345e-05
0	0.64924306	0.64924335	-2.351967e-10	0.06462956	0.06462956	0	171585.66	171585.75	-6.0586735e-05	629661.75	279279.03	-0.00020777027	279278.6	629661.6	-0.000114864866
0	0.6491495	0.64914984	-1.8042487e-10	0.06448809	0.06448809	0	171560.95	171561.02	-4.5280613e-05	629740	279069.88	-5.9121623e-05	279069.4	629739.9	-0.00014864864
0	0.64905655	0.6490569	-5.7993707e-11	0.06434676	0.06434675	0	171536.39	171536.45	-1.4668367e-05	629817.5	278862.28	-6.418919e-05	278861.78	629817.44	-6.7567566e-06
0	0.64896154	0.64896184	-2.6741542e-10	0.06420529	0.06420529	0	171511.28	171511.34	-7.716837e-05	629896.4	278650.28	-0.00019932432	278649.84	629896.25	-0.00019256756
0	0.6488681	0.6488683	-1.6753739e-10	0.06406391	0.06406391	0	171486.55	171486.61	-5.1020408e-05	629974.9	278440.78	-4.391892e-05	278440.28	629974.8	-0.00017905406
0	0.648773	0.6487733	-1.9653423e-10	0.06392241	0.06392241	0	171461.45	171461.53	-5.1020408e-05	630053.5	278229.25	-0.00011993243	278228.8	630053.44	-0.00016554054
0	0.6486799	0.64868015	-8.376869e-11	0.063781105	0.063781105	0	171436.84	171436.89	-2.614796e-05	630131.2	278021.2	2.7027027e-05	278020.72	630131	-0.00013175675
0	0.648584	0.64858437	-1.7398112e-10	0.06363964	0.06363964	0	171411.52	171411.56	-4.591837e-05	630210.4	277807.78	-0.00013513514	277807.3	630210.3	-0.000101351354
0	0.64848983	0.64848995	4.2206533e-10	0.06349814	0.06349814	0	171386.58	171386.64	0.000112882655	630288.44	277597.72	0.0002195946	277597.28	630288.25	0.0003918919
0	0.6483941	0.64839435	-1.9009049e-10	0.06335683	0.06335683	0	171361.33	171361.39	-5.484694e-05	630367.44	277384.88	-0.00016385135	277384.4	630367.4	-0.000111486486
0	0.6483009	0.6483011	-4.381747e-10	0.06321529	0.06321529	0	171336.66	171336.72	-0.000112244896	630444.8	277176.94	-0.00020608108	277176.5	630444.75	-0.00038513512
0	0.648204	0.6482043	-2.0619985e-10	0.06307396	0.06307396	0	171311.08	171311.12	-5.4209184e-05	630524.25	276961.84	-0.00013344595	276961.4	630524.2	-0.00016216216
0	0.64810884	0.64810914	-2.1908735e-10	0.06293249	0.06293249	0	171285.92	171286	-5.9630103e-05	630602.94	276750	-0.00017567568	276749.53	630602.75	-0.00012837838
0	0.64801204	0.6480123	-1.03099924e-10	0.06279103	0.06279103	0	171260.34	171260.4	-2.6785714e-05	630682.06	276535.28	-9.7972974e-05	276534.8	630681.9	-6.756757e-05
0	0.64791715	0.6479175	-3.7373724e-10	0.06264969	0.06264969	0	171235.27	171235.34	-9.885204e-05	630760.3	276324.28	-0.00026013513	276323.84	630760.1	-0.00030658784
0	0.64782107	0.64782125	-2.7708105e-10	0.062508225	0.062508225	0	171209.83	171209.9	-7.780612e-05	630839	276110.84	-0.00023141892	276110.4	630838.94	-0.00014527027
0	0.6477241	0.6477243	9.665618e-12	0.06236684	0.06236684	0	171184.22	171184.3	-6.377551e-07	630918.25	275895.97	2.195946e-05	275895.5	630918.1	-1.6891892e-05
0	0.6476275	0.6476277	-9.665618e-11	0.062225346	0.062225346	0	171158.69	171158.77	-2.1364796e-05	630997.2	275681.72	8.614865e-05	275681.28	630997.06	-0.00018243243
0	0.647531	0.6475312	-2.4486232e-10	0.062084038	0.062084038	0	171133.19	171133.27	-6.951531e-05	631075.7	275468.1	-0.00015878379	275467.62	631075.56	-0.00017905406
0	0.64743286	0.64743304	1.77203e-11	0.061942577	0.061942577	0	171107.25	171107.33	7.015306e-06	631155.2	275251.22	-1.0135135e-05	275250.75	631155.06	3.0405405e-05
0	0.647336	0.64733624	-1.2243116e-10	0.06180108	0.061801083	0	171081.66	171081.73	-2.8061224e-05	631234.1	275036.78	-7.432432e-05	275036.3	631233.9	-9.4594594e-05
0	0.64723873	0.64723897	-2.4486232e-10	0.061659772	0.061659772	0	171055.95	171056	-7.3341835e-05	631313.2	274821.5	-0.00012162162	274821.03	631313.06	-0.0002331081
0	0.64714116	0.64714146	-1.4498427e-10	0.061518237	0.061518237	0	171030.16	171030.22	-3.6989797e-05	631392.2	274605.9	-7.2635135e-05	274605.47	631392	-8.783784e-05
0	0.6470431	0.6470434	-2.1908735e-10	0.061376892	0.061376892	0	171004.27	171004.33	-6.3137755e-05	631471.3	274389.53	-0.0001554054	274389.06	631471.25	-0.00016891892
0	0.64694476	0.64694494	-1.6109364e-10	0.06123543	0.06123543	0	170978.22	170978.3	-4.0178573e-05	631550.5	274172.5	-0.00015202703	274172	631550.4	-5.7432433e-05
0	0.6468455	0.64684564	-4.961684e-10	0.061093967	0.061093967	0	170952.02	170952.08	-0.00013010204	631630.3	273953.75	-0.00038513512	273953.3	631630.1	-0.0002972973
0	0.646748	0.64674824	-1.4820614e-10	0.060952656	0.060952656	0	170926.25	170926.33	-3.6989797e-05	631709.1	273738.6	-2.195946e-05	273738.12	631709.06	-0.00015878379
0	0.64664835	0.6466486	-2.0297798e-10	0.060811166	0.060811166	0	170899.92	170899.98	-5.5484696e-05	631788.75	273519.38	-0.00015371622	273518.9	631788.6	-0.0001418919
0	0.6465497	0.64654994	-2.9802322e-10	0.060669772	0.060669776	0	170873.84	170873.92	-7.589286e-05	631868.3	273301.72	-0.0002179054	273301.25	631868.25	-0.00023648649
0	0.64645123	0.6464514	-4.929465e-10	0.060528316	0.060528316	0	170847.81	170847.86	-0.00013424744	631947.1	273084.97	-0.00035641892	273084.53	631947	-0.00036824323
0	0.646351	0.6463512	-3.54406e-10	0.060386974	0.060386974	0	170821.34	170821.39	-9.693878e-05	632027	272864.94	-0.00020945945	272864.5	632026.9	-0.0002939189
0	0.6462501	0.64625037	-2.8996854e-11	0.06024551	0.06024551	0	170794.69	170794.75	-2.5510203e-06	632107	272643.72	5.7432433e-05	272643.22	632106.8	-9.7972974e-05
0	0.64615124	0.6461515	-2.126436e-10	0.06010405	0.06010405	0	170768.55	170768.61	-4.655612e-05	632186.56	272425.72	-8.445946e-05	272425.25	632186.44	-0.00016554054
0	0.6460521	0.6460523	-1.192093e-10	0.059962712	0.059962712	0	170742.34	170742.4	-2.5510204e-05	632265.3	272208.12	-1.3513513e-05	272207.66	632265.2	-0.000101351354
0	0.64595	0.6459502	-1.2887491e-10	0.05982117	0.059821166	0	170715.34	170715.42	-3.252551e-05	632345.9	271984.56	1.3513513e-05	271984.1	632345.75	-0.0001722973
0	0.6458498	0.6458501	-2.7708105e-10	0.05967986	0.05967985	0	170688.89	170688.95	-7.653061e-05	632425.4	271764.9	-0.00015878379	271764.4	632425.25	-0.00022972973
0	0.64574873	0.645749	-2.0942173e-10	0.059538368	0.059538368	0	170662.16	170662.22	-5.9311224e-05	632505.2	271543.38	-0.00027027028	271542.9	632505.1	-5.4054053e-05
0	0.6456481	0.64564836	-1.8686862e-10	0.059396908	0.059396908	0	170635.58	170635.64	-5.197704e-05	632585.3	271322.56	-0.00019763513	271322.12	632585.2	-8.108108e-05
0	0.64554614	0.6455464	-2.0942173e-10	0.059255596	0.059255596	0	170608.64	170608.7	-5.9311224e-05	632665.1	271099.97	-0.00018918919	271099.53	632665	-0.000108108106
0	0.64544547	0.64544564	-3.2702008e-10	0.059114102	0.059114102	0	170582.03	170582.08	-9.247449e-05	632744.5	270879.56	-0.00023817568	270879.1	632744.4	-0.00022297297
0	0.64534295	0.6453432	-1.9653423e-10	0.058972713	0.058972713	0	170554.92	170554.98	-5.0063776e-05	632825.1	270655.5	-7.77027e-05	270655.03	632825	-0.00018243243
0	0.6452426	0.6452428	-3.1574351e-10	0.05883125	0.05883125	0	170528.39	170528.45	-7.9719386e-05	632904.25	270435.84	-0.00025675676	270435.34	632904	-0.0001418919
0	0.6451397	0.6451399	-3.2218728e-10	0.0586899	0.0586899	0	170501.22	170501.27	-8.67347e-05	632984.8	270211.2	-0.0002195946	270210.72	632984.7	-0.0002331081
0	0.64503646	0.6450367	-2.384186e-10	0.05854845	0.05854845	0	170473.94	170473.98	-5.8673468e-05	633065.2	269986.38	-0.00018243243	269985.9	633065	-0.00013513514
0	0.64493406	0.6449343	5.7993707e-11	0.058406986	0.058406986	0	170446.86	170446.9	1.1479592e-05	633145.2	269762.9	3.0405405e-05	269762.47	633145.1	7.242399e-05
0	0.6448319	0.6448321	-2.4164046e-10	0.05826565	0.05826565	0	170419.84	170419.92	-6.186224e-05	633225.2	269539.94	-0.00016554054	269539.47	633224.94	-0.0001554054
0	0.64472795	0.64472824	-4.027341e-10	0.058124106	0.058124106	0	170392.39	170392.45	-0.00010905612	633305.6	269313.97	-0.00030743243	269313.5	633305.5	-0.00026013513
0	0.6446253	0.64462554	-3.640716e-10	0.05798278	0.05798278	0	170365.27	170365.33	-0.000102040816	633386.06	269089.75	-0.00035472974	269089.34	633385.9	-0.00016891892
0	0.6445209	0.6445212	-3.54406e-10	0.05784131	0.05784131	0	170337.69	170337.73	-9.247449e-05	633466.44	268863.3	-0.0002804054	268862.8	633466.3	-0.00021621621
0	0.6444183	0.6444185	-9.987805e-11	0.057699848	0.057699848	0	170310.55	170310.61	-2.8061224e-05	633546.25	268639.75	-3.716216e-05	268639.28	633546.1	-0.000111486486
0	0.64431334	0.6443136	-6.4437455e-11	0.05755853	0.05755853	0	170282.81	170282.88	-2.1683674e-05	633627.06	268412.12	-5.0675676e-06	268411.62	633626.9	-0.000114864866
0	0.6442092	0.6442094	-1.417624e-10	0.05741706	0.05741706	0	170255.3	170255.34	-3.762755e-05	633707.1	268186.25	-6.5878376e-05	268185.8	633707	-0.00012162162
0	0.6441049	0.64410514	-1.643155e-10	0.057275645	0.057275645	0	170227.73	170227.8	-4.9744896e-05	633788	267959.38	-0.00015033784	267958.94	633787.9	-9.1216214e-05
0	0.64400077	0.644001	-2.1586546e-10	0.05713419	0.05713419	0	170200.19	170200.27	-5.5484696e-05	633868.4	267733.12	-0.00019594595	267732.7	633868.25	-0.00013175675
0	0.64389485	0.6438951	-2.480842e-10	0.056992844	0.056992844	0	170172.2	170172.28	-6.25e-05	633949.3	267503.94	-0.00016554054	267503.44	633949.2	-0.00016216216
0	0.6437905	0.6437907	-1.0954367e-10	0.056851387	0.056851387	0	170144.62	170144.69	-3.6989797e-05	634029.94	267277.28	-6.7567566e-06	267276.84	634029.7	-0.0001722973
0	0.64368564	0.6436859	-1.2243116e-10	0.056709927	0.056709927	0	170116.92	170116.97	-3.507653e-05	634110.1	267050.25	-4.391892e-05	267049.78	634109.94	-0.00013513514
0	0.6435782	0.64357847	-1.7075925e-10	0.056568585	0.056568585	0	170088.52	170088.58	-4.655612e-05	634191.7	266818.25	-0.00010472973	266817.78	634191.56	-0.00013513514
0	0.6434741	0.64347434	-4.123997e-10	0.056427047	0.056427047	0	170061.02	170061.06	-0.00011096939	634271.56	266592.56	-0.00029054054	266592.12	634271.44	-0.0002972973
0	0.64336675	0.6433669	-4.252872e-10	0.05628571	0.05628571	0	170032.62	170032.69	-0.000109375	634352.75	266361	-0.00032939189	266360.56	634352.6	-0.0002635135
0	0.6432603	0.6432604	-2.7385919e-10	0.05614425	0.05614425	0	170004.48	170004.55	-7.079082e-05	634434.06	266130.75	-0.00025675676	266130.28	634433.9	-0.00012837838
0	0.64315516	0.6431554	-1.8042487e-10	0.056002792	0.056002792	0	169976.7	169976.78	-4.591837e-05	634514	265903.56	-1.3513513e-05	265903.12	634513.9	-0.00019256756
0	0.64304674	0.64304686	-3.4796224e-10	0.05586147	0.05586147	0	169948.08	169948.12	-8.5459185e-05	634595.8	265670	-0.0001875	265669.56	634595.6	-0.0003108108
0	0.6429407	0.6429409	-1.3531866e-10	0.055719994	0.055719994	0	169920.05	169920.11	-3.635204e-05	634676.06	265441.34	-5.0675677e-05	265440.88	634675.94	-0.0001418919
0	0.6428321	0.6428323	-4.5106217e-11	0.055578664	0.055578664	0	169891.34	169891.39	-1.4030612e-05	634757.9	265207.47	-3.3783785e-05	265207	634757.8	-4.054054e-05
0	0.642726	0.6427261	-2.5774982e-10	0.055437125	0.055437125	0	169863.3	169863.36	-6.632653e-05	634838.1	264978.62	-0.00017905406	264978.2	634838.06	-0.00019594595
0	0.6426173	0.6426176	-9.665618e-12	0.05529578	0.05529578	0	169834.58	169834.62	0	634919.94	264744.78	6.756757e-05	264744.3	634919.75	-4.7297297e-05
0	0.64250994	0.6425102	-1.0954367e-10	0.055154327	0.055154327	0	169806.19	169806.25	-2.614796e-05	635000.7	264513.7	-0.00012837838	264513.22	635000.56	-2.027027e-05
0	0.6424002	0.64240044	-1.5464989e-10	0.05501287	0.05501287	0	169777.22	169777.27	-3.8265305e-05	635082.4	264278.38	-3.885135e-05	264277.9	635082.25	-0.0001554054
0	0.64229256	0.64229286	-9.987805e-11	0.054871522	0.054871522	0	169748.77	169748.83	-1.4668367e-05	635163.4	264046.7	-5.0675677e-05	264046.28	635163.25	-8.445946e-05
0	0.6421838	0.642184	-3.6729347e-10	0.05473008	0.05473008	0	169720.02	169720.06	-9.885204e-05	635244	263813.72	-0.0002685811	263813.28	635243.94	-0.00023648649
0	0.642075	0.6420752	-2.8030292e-10	0.05458865	0.05458865	0	169691.27	169691.33	-7.302296e-05	635326.06	263579.4	-0.00015878379	263578.97	635325.94	-0.00022297297
0	0.6419661	0.6419664	-3.6729347e-10	0.054447185	0.054447185	0	169662.48	169662.53	-9.821429e-05	635407.25	263345.8	-0.00030236488	263345.34	635407.06	-0.0002195946
0	0.64185554	0.6418557	-1.997561e-10	0.054305855	0.054305855	0	169633.27	169633.33	-5.229592e-05	635488.8	263109.44	-0.00022466216	263108.97	635488.6	-6.081081e-05
0	0.6417458	0.641746	-2.8996854e-11	0.054164406	0.05416441	0	169604.25	169604.31	-1.2117347e-05	635570.4	262874.16	-6.756757e-05	262873.7	635570.2	-1.9425675e-05
0	0.6416362	0.64163643	-1.6109364e-10	0.054022938	0.054022938	0	169575.28	169575.33	-4.9107144e-05	635651.8	262639.28	-8.108108e-05	262638.84	635651.7	-0.00016554054
0	0.64152646	0.6415266	-4.027341e-10	0.0538816	0.0538816	0	169546.27	169546.33	-0.000101403064	635733.44	262404.12	-0.0002939189	262403.7	635733.2	-0.00025675676
0	0.6414146	0.6414148	-2.255311e-10	0.05374007	0.05374007	0	169516.72	169516.77	-6.0586735e-05	635815.44	262165.47	-0.0001418919	262165.03	635815.25	-0.00019932432
0	0.64130545	0.6413057	-3.54406e-10	0.05359871	0.05359871	0	169487.88	169487.94	-9.438775e-05	635896.4	261931.75	-0.00024493242	261931.31	635896.2	-0.00024324324
0	0.6411929	0.6411931	-1.192093e-10	0.053457264	0.053457264	0	169458.12	169458.19	-2.997449e-05	635978.6	261691.83	-6.081081e-05	261691.36	635978.5	-7.77027e-05
0	0.6410827	0.64108294	-3.1252165e-10	0.053315822	0.053315822	0	169429	169429.06	-8.290816e-05	636060.06	261456.06	-0.00036317567	261455.62	636060	-7.432432e-05
0	0.6409701	0.64097035	-1.1276554e-11	0.053174462	0.053174462	0	169399.25	169399.3	-2.5510203e-06	636142.1	261216.48	2.027027e-05	261216	636142	-5.0675677e-05
0	0.64085984	0.6408601	-4.0595596e-10	0.053033024	0.053033024	0	169370.1	169370.16	-0.00010841837	636223.4	260980.94	-0.0002195946	260980.45	636223.2	-0.000402027
0	0.64074624	0.64074653	-2.835248e-10	0.052891586	0.052891586	0	169340.11	169340.16	-7.270408e-05	636305.8	260739.45	-0.00020270271	260739.02	636305.6	-0.00018581082
0	0.6406361	0.6406363	-2.6419356e-10	0.052750126	0.052750126	0	169310.95	169311.02	-7.015306e-05	636386.56	260504.36	-0.0002635135	260503.89	636386.4	-9.1216214e-05
0	0.6405228	0.64052296	-9.665618e-12	0.052608777	0.052608777	0	169281	169281.06	-8.290816e-06	636469.25	260262.94	-3.885135e-05	260262.47	636469.1	3.716216e-05
0	0.64040864	0.6404088	-2.3197483e-10	0.052467346	0.05246734	0	169250.88	169250.92	-6.8877554e-05	636551.7	260020.94	-0.0002635135	260020.5	636551.5	-0.000108108106
0	0.6402976	0.6402979	-2.4486232e-10	0.052325882	0.052325882	0	169221.5	169221.56	-6.632653e-05	636632.56	259784.53	-0.00013851351	259784.1	636632.4	-0.0002195946
0	0.64018345	0.64018357	-5.4771836e-11	0.05218454	0.05218454	0	169191.33	169191.38	-1.4668367e-05	636715.3	259541.94	-7.77027e-05	259541.48	636715.1	3.3783783e-06
0	0.6400706	0.6400708	-5.7993707e-11	0.052043002	0.052043002	0	169161.53	169161.58	-1.0841837e-05	636796.8	259302.45	-3.3783783e-06	259302.05	636796.6	-5.9121623e-05
0	0.6399552	0.6399554	-1.4498427e-10	0.051901635	0.051901635	0	169131.03	169131.08	-3.762755e-05	636879.6	259058.14	-0.00013175675	259057.66	636879.44	-9.7972974e-05
0	0.63984215	0.6398424	-3.8823567e-10	0.0517602	0.0517602	0	169101.14	169101.19	-9.948979e-05	636961.5	258818	-0.00017905406	258817.58	636961.25	-0.0003445946
0	0.639727	0.6397271	-4.6394966e-10	0.051618766	0.051618766	0	169070.69	169070.73	-0.00011543367	637043.9	258574.22	-0.00028547298	258573.81	637043.7	-0.00033108107
0	0.63961285	0.6396131	9.665618e-11	0.05147742	0.05147742	0	169040.55	169040.6	2.3596938e-05	637126.2	258332.38	4.054054e-05	258331.89	637126	8.783784e-05
0	0.6394973	0.6394974	-3.592388e-10	0.05133596	0.05133596	0	169009.95	169010.02	-9.183674e-05	637208.9	258087.61	-0.0002635135	258087.19	637208.6	-0.00019256756
0	0.63938344	0.6393837	-8.376869e-11	0.051194515	0.051194515	0	168979.92	168979.95	-3.093112e-05	637290.6	257846.62	-0.00025506757	257846.16	637290.5	0.00014527027
0	0.6392666	0.63926685	-3.3507477e-10	0.05105309	0.05105309	0	168949.05	168949.1	-8.609694e-05	637373.5	257600.19	-0.00016385135	257599.7	637373.4	-0.0003006757
0	0.6391528	0.63915294	-2.2553109e-11	0.050911706	0.050911706	0	168918.95	168919.02	-7.653061e-06	637455.06	257359.27	-2.027027e-05	257358.83	637454.9	-2.3648648e-05
0	0.63903546	0.63903564	-3.2540914e-10	0.05077028	0.05077028	0	168887.94	168887.98	-9.821429e-05	637538	257112.1	-0.0002804054	257111.62	637537.9	-0.00022297297
0	0.63892007	0.63892025	5.1549962e-11	0.050628845	0.050628845	0	168857.44	168857.5	1.1479592e-05	637620.3	256868.16	4.054054e-05	256867.72	637620.2	2.7027027e-05
0	0.63880426	0.63880444	-4.0595596e-10	0.050487474	0.050487474	0	168826.84	168826.88	-0.000102040816	637702.56	256623.95	-0.0003597973	256623.5	637702.4	-0.0002195946
0	0.63868594	0.63868606	-1.3531866e-10	0.050345946	0.050345946	0	168795.58	168795.61	-3.4438777e-05	637786	256374.78	-5.4054053e-05	256374.31	637785.8	-0.0001418919
0	0.63856864	0.6385688	-6.121558e-10	0.05020459	0.05020459	0	168764.58	168764.61	-0.00015752552	637868.44	256128.14	-0.000375	256127.7	637868.2	-0.0004966216
0	0.63845193	0.6384522	-6.0249017e-10	0.050063137	0.050063137	0	168733.73	168733.77	-0.00015752552	637951.06	255882.12	-0.0005185811	255881.66	637950.8	-0.00033445947
0	0.6383352	0.6383354	-2.351967e-10	0.04992171	0.04992171	0	168702.89	168702.9	-6.8877554e-05	638033.5	255636.23	-0.00016891892	255635.78	638033.4	-0.00018243243
0	0.6382175	0.6382178	-1.15987414e-10	0.049780354	0.049780354	0	168671.8	168671.84	-3.9540817e-05	638116.3	255388.84	-0.00012837838	255388.39	638116	-7.094595e-05
0	0.63809925	0.6380995	-3.6890443e-10	0.049638905	0.0496389	0	168640.52	168640.56	-9.948979e-05	638199.3	255140.2	-0.00022635135	255139.73	638199.06	-0.0002668919
0	0.63798153	0.63798165	-2.5452795e-10	0.049497455	0.049497455	0	168609.39	168609.44	-6.696428e-05	638281.8	254892.75	-0.00017905406	254892.28	638281.6	-0.00019087837
0	0.63786227	0.6378624	-3.28631e-10	0.04935602	0.04935602	0	168577.88	168577.92	-8.163265e-05	638364.2	254643.48	-0.00025422298	254643	638363.94	-0.00019594595
0	0.6377437	0.63774395	-1.0954367e-10	0.04921464	0.04921464	0	168546.56	168546.62	-2.9336734e-05	638447.4	254394.25	-0.000108108106	254393.84	638447.25	-3.716216e-05
0	0.6376234	0.6376236	-2.4486232e-10	0.04907321	0.04907321	0	168514.77	168514.81	-5.8673468e-05	638531.06	254142.22	-0.00013513514	254141.8	638530.8	-0.00017567568
0	0.63750476	0.63750494	-1.8686862e-10	0.04893179	0.04893179	0	168483.39	168483.44	-4.655612e-05	638613.5	253893.47	-0.00015456081	253893.05	638613.3	-0.000101351354
0	0.6373851	0.6373853	-2.3680763e-10	0.048790418	0.048790418	0	168451.77	168451.81	-5.6441328e-05	638696.6	253642.92	-0.000111486486	253642.5	638696.5	-0.00022297297
0	0.63726586	0.63726604	-3.0929978e-10	0.048648883	0.048648883	0	168420.25	168420.3	-8.0357146e-05	638779.4	253393.23	-0.00021621621	253392.78	638779.2	-0.00021621621
0	0.6371453	0.63714546	-2.1908735e-10	0.04850753	0.04850753	0	168388.38	168388.42	-5.5484696e-05	638862.9	253140.94	-0.00011655405	253140.5	638862.6	-0.00019594595
0	0.63702476	0.63702494	-9.665618e-11	0.048366077	0.048366077	0	168356.55	168356.6	-2.9336734e-05	638945.94	252889.17	-0.000101351354	252888.73	638945.75	-5.4054053e-05
0	0.6369031	0.6369032	-4.2206533e-10	0.048224654	0.048224654	0	168324.39	168324.44	-0.00010395408	639029	252635.77	-0.00027533784	252635.36	639028.75	-0.0003277027
0	0.63678324	0.6367835	-4.607278e-10	0.04808329	0.04808329	0	168292.73	168292.77	-0.000117346935	639111.75	252385.25	-0.0003006757	252384.84	639111.56	-0.00033108107
0	0.6366606	0.6366607	-3.060779e-10	0.04794185	0.04794185	0	168260.28	168260.33	-8.09949e-05	639195.75	252129.36	-0.00018327702	252128.92	639195.56	-0.00022297297
0	0.6365397	0.6365399	-5.2516524e-10	0.047800384	0.047800384	0	168228.36	168228.39	-0.00013010204	639278.9	251877.2	-0.00039949323	251876.73	639278.6	-0.00034712837
0	0.63641834	0.63641846	-3.8662473e-11	0.047658965	0.047658965	0	168196.27	168196.31	-1.0841837e-05	639361.94	251624.11	4.1385134e-05	251623.67	639361.8	-6.756757e-05
0	0.6362951	0.63629526	-2.9319042e-10	0.04751758	0.04751758	0	168163.7	168163.75	-7.9081634e-05	639445.25	251368.25	-0.00023226351	251367.84	639445.06	-0.00017905406
0	0.636173	0.6361732	-1.5464989e-10	0.047376156	0.047376156	0	168131.44	168131.48	-4.049745e-05	639528.9	251113.83	-6.9256756e-05	251113.36	639528.6	-0.0001423142
0	0.63605076	0.63605094	-1.3531866e-10	0.047234733	0.047234733	0	168099.16	168099.19	-3.125e-05	639611.9	250859.69	-0.00028969595	250859.25	639611.6	0.000101351354
0	0.63592684	0.635927	-1.4820614e-10	0.047093347	0.047093347	0	168066.36	168066.4	-4.0178573e-05	639695.56	250602.4	-0.0002043919	250601.97	639695.3	2.027027e-05
0	0.63580436	0.6358046	9.0212435e-11	0.046951823	0.046951823	0	168034.05	168034.06	2.4872448e-05	639779	250347.69	2.7871622e-05	250347.27	639778.75	9.7972974e-05
0	0.6356814	0.6356815	-1.3531866e-10	0.046810463	0.046810463	0	168001.5	168001.55	-3.252551e-05	639862.1	250092.22	-5.6587836e-05	250091.77	639861.94	-0.000101351354
0	0.63555664	0.6355568	-2.126436e-10	0.04666902	0.04666902	0	167968.56	167968.6	-5.6122448e-05	639946.44	249833.47	-0.0002331081	249833.03	639946.1	-5.7432433e-05
0	0.6354329	0.6354331	-2.6741542e-10	0.046527658	0.046527658	0	167935.84	167935.88	-6.632653e-05	640029.75	249576.75	-0.0002331081	249576.31	640029.44	-0.000101351354
0	0.6353089	0.63530904	-4.1723253e-10	0.046386234	0.046386234	0	167903.05	167903.1	-0.000102040816	640113.1	249319.78	-0.0003108108	249319.34	640112.8	-0.00023648649
0	0.6351833	0.63518345	-7.08812e-11	0.0462448	0.0462448	0	167869.88	167869.9	-1.7857143e-05	640197.06	249059.97	-1.1824324e-05	249059.55	640196.8	-7.77027e-05
0	0.6350584	0.63505846	-1.3209678e-10	0.04610342	0.04610342	0	167836.88	167836.9	-3.8265305e-05	640280.7	248801.53	-0.00017567568	248801.1	640280.44	-1.6891892e-05
0	0.6349323	0.6349324	-1.11154606e-10	0.045961898	0.045961898	0	167803.53	167803.56	-2.3915816e-05	640364.6	248541.02	8.445946e-06	248540.61	640364.4	-0.0001722973
0	0.6348078	0.63480794	-3.0285605e-10	0.045820512	0.045820512	0	167770.64	167770.67	-7.653061e-05	640448.3	248283.11	-0.00021368243	248282.64	640448	-0.00020608108
0	0.63468105	0.63468105	-3.415185e-10	0.0456791	0.0456791	0	167737.12	167737.14	-8.928571e-05	640531.94	248021.9	-0.00024155405	248021.47	640531.6	-0.00021621621
0	0.63455564	0.6345558	-1.77203e-10	0.045537677	0.045537677	0	167703.98	167704.03	-4.7193877e-05	640615.8	247762.47	-0.00012668919	247762	640615.6	-0.000108108106
0	0.63442785	0.634428	-2.0297798e-10	0.045396283	0.045396283	0	167670.22	167670.27	-5.1658164e-05	640700.1	247499.25	-9.1216214e-05	247498.83	640699.94	-0.00016891892
0	0.6343022	0.6343023	-2.8996854e-11	0.04525487	0.04525487	0	167637	167637.03	-1.1479592e-05	640783.94	247239.52	-2.195946e-05	247239.1	640783.7	-1.6047297e-05
0	0.6341747	0.6341748	-2.480842e-10	0.045113392	0.045113385	0	167603.33	167603.34	-6.760204e-05	640868	246977.03	-0.000118243246	246976.6	640867.75	-0.0002466216