# t (s)	mx ()	my ()	mz ()	B_extx (T)	B_exty (T)	B_extz (T)	m_fullx (A/m)	m_fully (A/m)	m_fullz (A/m)	m_full.region1x (A/m)	m_full.region1y (A/m)	m_full.region1z (A/m)	m_full.region2x (A/m)	m_full.region2y (A/m)	m_full.region2z (A/m)
0	0.653327	0.65332514	3.1204785e-09	0.0707109	0.0707109	0	67906.3	67906.1	0.0003259018	617920.6	296735.34	0.001819853	296737.16	617919.8	0.0025055148
0	0.65309656	0.6530961	-4.1372636e-10	0.07035726	0.07035726	0	67882.336	67882.3	-4.2307187e-05	618125	296209.66	-0.00025	296210.12	618124.94	-0.00035110294
0	0.652862	0.65286165	-1.3674006e-10	0.07000352	0.07000352	0	67857.96	67857.92	-1.4875754e-05	618336.5	295669.9	-0.00022794117	295670.38	618336.4	2.0220588e-05
0	0.6526247	0.6526243	-2.6471475e-10	0.0696499	0.06964989	0	67833.29	67833.25	-2.6749061e-05	618549.6	295124.47	-0.00014705882	295124.94	618549.56	-0.0002398897
0	0.6523875	0.65238714	-2.9977631e-10	0.069296606	0.069296606	0	67808.64	67808.6	-3.1389205e-05	618762.1	294579.94	-0.00023161765	294580.4	618762.1	-0.00022242648
0	0.6521458	0.65214545	-5.364418e-10	0.06894301	0.06894301	0	67783.52	67783.484	-5.4453445e-05	618977.94	294025.75	-0.0003460478	294026.22	618977.94	-0.0004007353
0	0.65190613	0.6519057	-2.5594935e-10	0.068589255	0.06858925	0	67758.6	67758.56	-2.702201e-05	619191.3	293476.84	-0.00016544118	293477.28	619191.25	-0.0002242647
0	0.6516652	0.65166485	-1.1395006e-10	0.068235636	0.068235636	0	67733.56	67733.53	-1.1600358e-05	619404	292926.9	-6.7095585e-05	292927.34	619403.94	-9.5588235e-05
0	0.65142214	0.65142184	-3.7691172e-10	0.06788234	0.067882344	0	67708.3	67708.26	-3.889532e-05	619617.9	292372.62	-0.00029503676	292373.1	619617.8	-0.00023345588
0	0.65117604	0.65117574	-4.4878792e-10	0.067528725	0.067528725	0	67682.72	67682.69	-4.5855533e-05	619833.2	291812.8	-0.00039705881	291813.25	619833.1	-0.00027757353
0	0.6509304	0.65093017	-3.2782554e-10	0.06717497	0.06717497	0	67657.195	67657.164	-3.548345e-05	620048.75	291253.6	-0.00026746324	291254	620048.7	-0.00022794117
0	0.65068245	0.6506822	-4.0320788e-10	0.066821806	0.066821806	0	67631.42	67631.39	-4.2443662e-05	620264.44	290690.66	-0.00034650735	290691.06	620264.4	-0.00023713235
0	0.6504307	0.6504304	-3.085417e-10	0.06646817	0.06646817	0	67605.26	67605.23	-3.1116255e-05	620483.06	290119.5	-0.00025367647	290119.9	620483.06	-0.0002132353
0	0.650181	0.6501807	-2.6471475e-10	0.066114426	0.066114426	0	67579.3	67579.266	-2.6885536e-05	620699.3	289553.75	-0.00028630515	289554.16	620699.25	-0.00011213235
0	0.6499302	0.6499298	-3.3483785e-10	0.06576082	0.06576082	0	67553.23	67553.195	-3.5210498e-05	620913.94	288987.75	-0.00031433825	288988.16	620914	-0.00018198529
0	0.6496744	0.64967406	-5.3118254e-10	0.06540751	0.06540751	0	67526.64	67526.61	-5.5681718e-05	621133.9	288409.8	-0.0004227941	288410.22	621133.8	-0.0003658088
0	0.64942086	0.6494206	-3.471094e-10	0.065053925	0.065053925	0	67500.3	67500.26	-3.548345e-05	621349.44	287839.34	-0.000234375	287839.78	621349.4	-0.0002555147
0	0.64916337	0.6491631	-3.2431938e-10	0.06470018	0.06470017	0	67473.53	67473.5	-3.0843305e-05	621568.56	287259.84	-0.00027297795	287260.28	621568.5	-0.00016727942
0	0.64890534	0.6489051	-4.978741e-10	0.06434656	0.06434657	0	67446.71	67446.68	-5.2542797e-05	621786.6	286680.47	-0.00041544117	286680.88	621786.6	-0.0002867647
0	0.64864445	0.6486442	-4.50541e-10	0.063993245	0.063993245	0	67419.59	67419.56	-4.626496e-05	622006.56	286095.22	-0.00031066177	286095.62	622006.56	-0.00031985293
0	0.64838356	0.6483833	-2.910109e-10	0.06363963	0.06363964	0	67392.48	67392.445	-3.0297406e-05	622225.56	285511	-0.00023391545	285511.4	622225.56	-0.00018014706
0	0.6481203	0.6481199	-5.171579e-10	0.063285895	0.063285895	0	67365.11	67365.08	-5.4453445e-05	622445.56	284922.34	-0.00035294116	284922.7	622445.56	-0.00041544117
0	0.647854	0.6478537	-3.1380093e-10	0.0629327	0.0629327	0	67337.42	67337.4	-3.1389205e-05	622668.1	284326.97	-0.00018520221	284327.4	622668.1	-0.00025919118
0	0.64758825	0.64758795	-4.1723253e-10	0.06257909	0.06257909	0	67309.805	67309.77	-4.2170712e-05	622887.06	283736	-0.00036856616	283736.44	622887.06	-0.00020588236
0	0.64732075	0.6473205	-2.1212242e-10	0.062225346	0.062225346	0	67282.01	67281.98	-1.9379422e-05	623108.56	283140.12	-0.00014705882	283140.53	623108.56	-0.00015808824
0	0.6470514	0.64705116	-2.0686318e-10	0.061871756	0.061871752	0	67254.016	67253.99	-2.101712e-05	623329.75	282541.84	-0.00022702206	282542.22	623329.75	-5.882353e-05
0	0.6467801	0.64677984	-3.856771e-10	0.061518405	0.061518412	0	67225.81	67225.79	-3.985064e-05	623551.94	281939.78	-0.00027941176	281940.2	623552	-0.00030330883
0	0.64650613	0.64650583	-3.5061554e-11	0.06116484	0.06116484	0	67197.34	67197.31	-4.776618e-06	623774.5	281333.78	6.25e-05	281334.16	623774.56	-0.00012040441
0	0.6462323	0.64623207	-3.5061556e-10	0.060811095	0.0608111	0	67168.88	67168.85	-3.548345e-05	623997.2	280727.7	-0.00019577205	280728.1	623997.25	-0.00032904412
0	0.645956	0.64595574	-5.136518e-10	0.0604575	0.0604575	0	67140.16	67140.13	-5.3907548e-05	624220.75	280117.28	-0.0005330882	280117.62	624220.75	-0.00024080882
0	0.6456778	0.64567757	-3.1029476e-10	0.060104154	0.060104154	0	67111.234	67111.22	-3.1662155e-05	624444.56	279504	-0.00029044118	279504.34	624444.6	-0.00016544118
0	0.64539814	0.64539784	-9.291312e-11	0.059750553	0.059750553	0	67082.17	67082.14	-1.0099136e-05	624669	278888.06	-4.9632352e-05	278888.4	624669	-9.007353e-05
0	0.6451156	0.6451154	-1.9985087e-10	0.059396815	0.059396815	0	67052.805	67052.78	-2.1563019e-05	624895.06	278266.44	-0.00013878677	278266.78	624895.2	-0.00014889706
0	0.64483416	0.644834	-3.15554e-10	0.059043605	0.0590436	0	67023.555	67023.53	-3.2481003e-05	625118	277649.38	-0.00029044118	277649.75	625118.06	-0.00018198529
0	0.6445473	0.6445471	-3.628871e-10	0.05869	0.05869	0	66993.734	66993.71	-3.6848196e-05	625345.56	277020.3	-0.00031709558	277020.66	625345.6	-0.00019852941
0	0.64426094	0.6442607	-4.259979e-10	0.05833626	0.05833626	0	66963.98	66963.945	-4.2443662e-05	625571.3	276393.62	-0.00036305148	276393.97	625571.4	-0.00023713235
0	0.6439745	0.64397436	-4.4528176e-10	0.057982683	0.057982683	0	66934.2	66934.18	-4.722028e-05	625795.2	275768.88	-0.00034742648	275769.22	625795.2	-0.00030698528
0	0.6436834	0.6436832	-5.276764e-10	0.05762931	0.05762931	0	66903.945	66903.92	-5.5545243e-05	626022	275134.34	-0.00042555147	275134.72	626022.06	-0.0003694853
0	0.6433917	0.64339167	-4.803433e-10	0.057275716	0.057275716	0	66873.63	66873.61	-5.1314524e-05	626249	274499.2	-0.00038327207	274499.53	626249.06	-0.00032904412
0	0.64309734	0.64309716	-2.1913472e-10	0.05692202	0.05692202	0	66843.02	66843.01	-2.3064242e-05	626478.1	273857.8	-0.00019209558	273858.12	626478.1	-0.00014154412
0	0.6428019	0.6428017	-3.1204786e-10	0.05656843	0.05656843	0	66812.32	66812.305	-3.2344527e-05	626705.94	273216.38	-0.0002647059	273216.66	626706	-0.00019669118
0	0.6425041	0.6425039	-4.5580023e-10	0.056215048	0.056215048	0	66781.37	66781.34	-4.7083806e-05	626934.1	272571.2	-0.00032536764	272571.5	626934.2	-0.00033088235
0	0.6422045	0.6422043	-5.5747873e-10	0.055861473	0.055861473	0	66750.22	66750.2	-5.882064e-05	627162.8	271923.06	-0.00046139705	271923.38	627162.94	-0.00036213236
0	0.64190584	0.64190567	-3.944425e-10	0.055507734	0.055507734	0	66719.19	66719.17	-4.2580137e-05	627389.4	271278.44	-0.0002766544	271278.75	627389.5	-0.00034007351
0	0.6416016	0.64160144	-4.5404713e-10	0.055154495	0.055154495	0	66687.56	66687.55	-4.913093e-05	627618.9	270623.16	-0.00034420955	270623.44	627618.94	-0.00033272058
0	0.64129835	0.64129823	-2.5594935e-10	0.05480091	0.05480091	0	66656.05	66656.03	-2.6203163e-05	627848.3	269969.06	-0.00018198529	269969.34	627848.44	-0.00020404412
0	0.64099187	0.6409916	-4.3826945e-10	0.05444718	0.05444718	0	66624.18	66624.164	-4.5719058e-05	628078.44	269309.8	-0.0003492647	269310.1	628078.56	-0.00031525735
0	0.64068156	0.64068145	-2.7172706e-10	0.054093614	0.054093614	0	66591.94	66591.914	-2.9478557e-05	628311	268642.97	-0.00023805146	268643.28	628311	-0.00017830882
0	0.6403713	0.64037126	-1.7180163e-10	0.0537402	0.053740203	0	66559.69	66559.68	-1.73323e-05	628541.6	267978.03	-0.0001875	267978.34	628541.7	-4.5955883e-05
0	0.6400598	0.64005977	-4.1547943e-10	0.053386625	0.053386625	0	66527.32	66527.3	-4.2853088e-05	628770.94	267312.53	-0.00030882354	267312.8	628771.06	-0.0003180147
0	0.6397456	0.6397454	-3.2957861e-10	0.05303294	0.05303294	0	66494.65	66494.63	-3.46646e-05	629002.4	266641.1	-0.0003561581	266641.4	629002.5	-0.00013235294
0	0.63942957	0.6394294	-1.4725854e-10	0.052679367	0.052679367	0	66461.8	66461.78	-1.4466329e-05	629234.75	265966.3	-0.00021691177	265966.6	629234.9	3.6764707e-06
0	0.6391098	0.63910973	-4.119733e-10	0.05232594	0.05232594	0	66428.57	66428.555	-4.2853088e-05	629469.06	265284.38	-0.00034237132	265284.66	629469.2	-0.0002665441
0	0.63879174	0.6387917	-3.225663e-10	0.051972385	0.051972385	0	66395.51	66395.5	-3.3709275e-05	629699.2	264609.06	-0.00024264706	264609.3	629699.3	-0.00023805146
0	0.63846886	0.63846874	-1.0693774e-10	0.051618658	0.051618658	0	66361.945	66361.94	-1.0917984e-05	629933.1	263923.06	-0.0001507353	263923.28	629933.25	-5.5147057e-06
0	0.63814473	0.6381447	-3.6989942e-10	0.05126538	0.05126538	0	66328.26	66328.26	-3.780352e-05	630166.3	263236.12	-0.00024264706	263236.38	630166.44	-0.00029136028
0	0.6378177	0.6378177	-3.3483785e-10	0.05091182	0.050911818	0	66294.266	66294.266	-3.41187e-05	630400.5	262544.1	-0.00026516544	262544.28	630400.7	-0.00022242648
0	0.6374897	0.6374897	-2.384186e-10	0.050558098	0.050558094	0	66260.17	66260.17	-2.333719e-05	630634.4	261850.98	-0.00021691177	261851.22	630634.56	-0.00010661765
0	0.6371582	0.6371582	-3.8392403e-10	0.05020455	0.05020455	0	66225.72	66225.72	-3.930474e-05	630871.25	261150.06	-0.00027481618	261150.27	630871.44	-0.00027205882
0	0.6368271	0.6368271	-2.3491242e-10	0.049851097	0.04985109	0	66191.305	66191.305	-2.4565465e-05	631104.44	260453.25	-0.00024310662	260453.47	631104.56	-6.8014706e-05
0	0.636492	0.63649195	-3.8918327e-10	0.049497537	0.049497537	0	66156.48	66156.48	-3.930474e-05	631339.75	259748.92	-0.00031617648	259749.11	631339.9	-0.00024816176
0	0.63615465	0.63615465	-1.3674006e-10	0.04914386	0.04914386	0	66121.41	66121.414	-1.5285177e-05	631575.4	259040.95	-0.00013143383	259041.16	631575.6	-5.3308824e-05
0	0.6358168	0.6358168	-2.7348013e-10	0.048790313	0.048790313	0	66086.3	66086.3	-2.9205608e-05	631811.56	258331.8	-0.00023621324	258331.98	631811.75	-0.00015625
0	0.6354742	0.6354742	-4.768372e-10	0.04843684	0.048436835	0	66050.69	66050.695	-5.0495677e-05	632048.44	257615.33	-0.0004430147	257615.45	632048.56	-0.0002803309
0	0.6351307	0.6351307	-3.558748e-10	0.048083298	0.0480833	0	66014.984	66014.984	-3.7939993e-05	632287	256895.77	-0.0003272059	256895.94	632287.2	-0.00018198529
0	0.6347877	0.63478774	-1.9809779e-10	0.047729585	0.047729585	0	65979.336	65979.336	-2.047122e-05	632521.6	256181	-0.00025275737	256181.16	632521.9	-3.3088236e-05
0	0.6344385	0.6344385	-7.012311e-11	0.047376275	0.04737627	0	65943.03	65943.04	-7.09669e-06	632761.5	255452.22	-0.00012591912	255452.38	632761.7	6.433824e-05
0	0.63408864	0.6340887	-4.575533e-10	0.04702273	0.04702273	0	65906.67	65906.68	-4.7629706e-05	632999.4	254724.58	-0.00042693014	254724.77	632999.6	-0.00023897059
0	0.63373786	0.633738	-4.73331e-10	0.046669014	0.046669014	0	65870.22	65870.23	-4.8448554e-05	633236.1	253996.81	-0.00033180148	253996.97	633236.3	-0.00035110294
0	0.63338226	0.63338226	-4.6105947e-10	0.046315487	0.046315487	0	65833.24	65833.26	-4.858503e-05	633476.6	253258.36	-0.00036397058	253258.45	633476.8	-0.00030330883
0	0.63302743	0.63302755	-5.364418e-10	0.045961976	0.045961984	0	65796.375	65796.38	-5.3634598e-05	633713.25	252525.06	-0.00032628677	252525.16	633713.56	-0.00043014705
0	0.63266695	0.63266695	-2.9627015e-10	0.04560845	0.045608446	0	65758.89	65758.91	-3.125273e-05	633954.94	251778.6	-0.00026608456	251778.7	633955.1	-0.00015441177
0	0.63230723	0.6323073	-4.1723253e-10	0.045254778	0.045254778	0	65721.51	65721.52	-4.3944885e-05	634192.6	251037.33	-0.00024126838	251037.45	634192.9	-0.00035294116
0	0.63194215	0.6319423	-5.7500954e-10	0.04490125	0.04490125	0	65683.56	65683.586	-5.8957114e-05	634434.75	250284.11	-0.0003782169	250284.19	634435.06	-0.0004834559
0	0.63157797	0.63157815	-2.524432e-10	0.04454773	0.044547725	0	65645.72	65645.74	-2.442899e-05	634673.06	249536.11	-0.00028308824	249536.19	634673.25	-5.3308824e-05
0	0.6312085	0.6312086	-3.2431938e-10	0.044194218	0.044194218	0	65607.31	65607.32	-3.2753953e-05	634915.9	248775.89	-0.0002867647	248775.95	634916.2	-0.00019485294
0	0.6308397	0.6308398	-2.594555e-10	0.04384051	0.04384051	0	65568.984	65568.99	-2.6476111e-05	635154.75	248020.69	-0.00033226103	248020.72	635155.1	-4.7794118e-05
0	0.6304662	0.63046646	-3.8392403e-10	0.043486983	0.043486983	0	65530.16	65530.17	-3.9987117e-05	635396.44	247256.22	-0.00035477942	247256.28	635396.7	-0.00020220588
0	0.6300902	0.6300903	-2.8750477e-10	0.04313364	0.04313364	0	65491.074	65491.082	-3.1116255e-05	635638.2	246487.97	-0.00024954043	246487.98	635638.44	-0.00019485294
0	0.62971395	0.6297141	-2.3315935e-10	0.042779934	0.04277993	0	65451.965	65451.99	-2.470194e-05	635879.9	245719.56	-0.00019715073	245719.61	635880.1	-0.00016360295
0	0.6293331	0.62933326	-4.3125714e-10	0.042426415	0.042426415	0	65412.375	65412.4	-4.5173158e-05	636122.44	244943.81	-0.00043014705	244943.81	636122.6	-0.00019301471
0	0.62895066	0.6289509	-3.9619558e-10	0.042072866	0.04207287	0	65372.633	65372.66	-4.094244e-05	636365.75	244165.2	-0.00028492647	244165.2	636366	-0.00031066177
0	0.6285636	0.6285638	-2.9802322e-10	0.041719355	0.04171936	0	65332.402	65332.43	-2.9887982e-05	636611	243378.08	-0.0002734375	243378.05	636611.3	-0.0001461397
0	0.628178	0.6281782	-4.0671405e-10	0.0413657	0.0413657	0	65292.32	65292.348	-4.3398988e-05	636852.06	242597.19	-0.00033547793	242597.17	636852.4	-0.00028125
0	0.6277879	0.6277881	-4.2249174e-10	0.041012205	0.041012205	0	65251.78	65251.805	-4.4763736e-05	637096	241807.1	-0.0003814338	241807.08	637096.3	-0.00022794117
0	0.6273948	0.6273951	-1.57777e-10	0.04065862	0.04065862	0	65210.92	65210.953	-1.5558127e-05	637340.25	241012.5	-0.00011764706	241012.45	637340.7	-0.00010110294
0	0.62699753	0.6269978	-4.4878792e-10	0.04030513	0.04030513	0	65169.633	65169.656	-4.667438e-05	637586.94	240209.72	-0.00039889707	240209.67	637587.2	-0.00025
0	0.6266016	0.62660193	-6.416265e-10	0.03995143	0.03995143	0	65128.47	65128.5	-6.632676e-05	637829.6	239412.67	-0.00048161764	239412.61	637829.9	-0.00047242647
0	0.62619907	0.62619936	-3.1906017e-10	0.039597943	0.039597943	0	65086.637	65086.668	-3.41187e-05	638076.94	238601.8	-0.00038419117	238601.73	638077.3	-0.00013602941
0	0.62579834	0.6257986	-3.7515865e-10	0.039244547	0.039244547	0	65044.984	65045.02	-3.8212944e-05	638319.94	237797.83	-0.00021461397	237797.72	638320.25	-0.00035661765
0	0.6253923	0.62539256	-4.0320788e-10	0.038890846	0.038890846	0	65002.777	65002.812	-3.985064e-05	638565.56	236983.72	-0.00028308824	236983.62	638565.94	-0.00024816176
0	0.6249836	0.624984	-3.856771e-10	0.03853736	0.03853736	0	64960.305	64960.34	-3.9031795e-05	638812.3	236164.9	-0.00022518383	236164.78	638812.7	-0.00033088235
0	0.6245725	0.6245728	-4.3826945e-10	0.03818374	0.03818374	0	64917.57	64917.605	-4.3398988e-05	639058.4	235343.2	-0.00029825367	235343.1	639058.8	-0.0003235294
0	0.6241582	0.6241587	-1.6128315e-10	0.03783027	0.03783027	0	64874.516	64874.547	-1.8424098e-05	639304.9	234516.83	-0.00024908088	234516.67	639305.2	3.6764707e-06
0	0.6237423	0.6237427	-3.558748e-10	0.03747657	0.03747657	0	64831.29	64831.33	-3.6848196e-05	639551.5	233687.92	-0.000328125	233687.8	639551.94	-0.00017279411
0	0.62332284	0.6233232	-4.119733e-10	0.037123155	0.037123155	0	64787.676	64787.727	-4.3671935e-05	639799.4	232852.75	-0.00031617648	232852.58	639799.7	-0.0002757353
0	0.62289834	0.6228987	-4.2775097e-10	0.036769494	0.0367695	0	64743.56	64743.6	-4.3944885e-05	640049.3	232008.52	-0.00041176472	232008.34	640049.7	-0.00020036765
0	0.6224741	0.6224745	-2.2790012e-10	0.03641605	0.03641605	0	64699.465	64699.51	-2.2791291e-05	640297.2	231166.75	-0.00022931985	231166.55	640297.5	-9.191177e-05
0	0.62204593	0.6220464	-7.713542e-11	0.03606235	0.03606235	0	64654.965	64655.016	-7.09669e-06	640545.5	230319.08	-0.000171875	230318.84	640546	5.514706e-05
0	0.62161547	0.621616	-4.2950407e-10	0.035708904	0.035708904	0	64610.22	64610.27	-4.4763736e-05	640793.8	229468.05	-0.0003382353	229467.86	640794.3	-0.00029779412
0	0.6211832	0.6211837	-3.1204786e-10	0.03535545	0.03535545	0	64565.297	64565.348	-3.35728e-05	641041	228615.83	-0.00016819853	228615.58	641041.44	-0.00028860295
0	0.6207453	0.6207458	-2.2264088e-10	0.03500176	0.03500176	0	64519.78	64519.836	-2.2108918e-05	641292.1	227751.67	-0.00023529412	227751.39	641292.44	-7.536765e-05
0	0.6203078	0.62030834	-2.9451708e-10	0.034648303	0.034648303	0	64474.297	64474.363	-3.2617478e-05	641539.06	226892.11	-0.00033915442	226891.84	641539.6	-9.283088e-05
0	0.6198637	0.6198643	-6.4337957e-10	0.034294628	0.034294628	0	64428.145	64428.2	-6.619028e-05	641791.25	226018.19	-0.00041819853	226017.88	641791.7	-0.0005294118
0	0.61942	0.61942047	-3.856771e-10	0.033941172	0.033941172	0	64382.03	64382.082	-4.1078914e-05	642039.06	225149.19	-0.0003313419	225148.86	642039.56	-0.00023161765
0	0.61897117	0.6189717	-2.1212242e-10	0.033587486	0.033587486	0	64335.363	64335.426	-2.1290069e-05	642289.9	224270.1	-0.0002647059	224269.77	642290.3	-2.0220588e-05
0	0.61851823	0.6185187	-4.4878792e-10	0.033234086	0.033234086	0	64288.293	64288.355	-4.8994454e-05	642540.56	223385.23	-0.00038005513	223384.88	642541	-0.0002757353
0	0.61806524	0.61806595	-4.8384946e-10	0.03288041	0.03288041	0	64241.215	64241.277	-4.9540355e-05	642791.2	222500.58	-0.00044393382	222500.2	642791.7	-0.0002555147
0	0.6176073	0.6176079	-3.9268944e-10	0.032526962	0.032526962	0	64193.61	64193.67	-4.094244e-05	643042.25	221608.3	-0.0002242647	221607.9	643042.75	-0.00032536764
0	0.61714476	0.6171455	-1.7530778e-10	0.032173283	0.032173283	0	64145.543	64145.61	-1.9379422e-05	643296.56	220706.52	-0.00017049632	220706.12	643297.06	-0.00010661765
0	0.61668307	0.6166837	-4.8560256e-10	0.03181982	0.03181982	0	64097.547	64097.613	-4.7902657e-05	643545.9	219810.81	-0.00037040442	219810.42	643546.4	-0.00032904412
0	0.6162159	0.61621666	-2.8575167e-10	0.03146635	0.03146635	0	64048.99	64049.07	-3.0297406e-05	643798.5	218904.25	-0.00028952205	218903.81	643799	-0.000104779414
0	0.61574644	0.61574715	-2.769863e-10	0.031112673	0.031112673	0	64000.195	64000.266	-2.8250284e-05	644050.25	217995.17	-0.00023805146	217994.72	644050.75	-0.0001507353
0	0.6152722	0.615273	-6.4863875e-10	0.030759202	0.030759204	0	63950.914	63950.99	-6.4962005e-05	644303.56	217078.08	-0.00060110295	217077.61	644304.2	-0.00031617648
0	0.61479557	0.6147963	-1.6128315e-10	0.03040555	0.03040555	0	63901.367	63901.44	-1.6376976e-05	644556.4	216157.89	-0.00017049632	216157.38	644557	-6.25e-05
0	0.6143157	0.61431646	-6.5915723e-10	0.030052077	0.030052077	0	63851.484	63851.566	-6.619028e-05	644809.3	215233.1	-0.0005059743	215232.62	644809.94	-0.00044117647
0	0.6138325	0.61383337	-9.817236e-11	0.029698407	0.029698407	0	63801.266	63801.348	-9.826185e-06	645063.4	214302.66	-0.00011305147	214302.12	645063.94	-2.5735295e-05
0	0.613345	0.61334586	-1.0343159e-10	0.029345	0.029345	0	63750.59	63750.676	-1.0099136e-05	645317.25	213366.27	-0.00014889706	213365.75	645317.94	-1.8382353e-06
0	0.6128536	0.6128544	-3.1029476e-10	0.02899134	0.028991342	0	63699.516	63699.605	-3.439165e-05	645573.75	212421.84	-0.00031663603	212421.27	645574.44	-0.000113970586
0	0.612362	0.6123629	-4.6105947e-10	0.028637858	0.02863786	0	63648.43	63648.523	-4.722028e-05	645825.8	211481.6	-0.00034191177	211481	645826.5	-0.00029963235
0	0.61186534	0.61186635	-8.765389e-11	0.028284214	0.028284214	0	63596.805	63596.9	-9.553236e-06	646080.4	210531.81	-0.0001351103	210531.16	646081.06	1.4705883e-05
0	0.611363	0.6113639	-7.9239115e-10	0.027930737	0.027930737	0	63544.586	63544.68	-8.2294304e-05	646337.94	209570.88	-0.00058409927	209570.22	646338.56	-0.0005873162
0	0.6108605	0.6108614	-4.6105947e-10	0.027577247	0.027577247	0	63492.363	63492.457	-4.6128484e-05	646591.1	208614.31	-0.00039981617	208613.62	646591.9	-0.00025735295
0	0.6103527	0.61035377	-5.066395e-10	0.02722359	0.02722359	0	63439.586	63439.684	-5.2406325e-05	646846.7	207647.78	-0.00044485295	207647.08	646847.44	-0.00030330883
0	0.6098418	0.60984284	-2.2088781e-10	0.0268701	0.026870102	0	63386.48	63386.574	-2.2927767e-05	647103.06	206676.2	-0.00019393383	206675.5	647103.7	-0.00013419117
0	0.6093257	0.60932666	-4.0846712e-10	0.026516471	0.02651647	0	63332.832	63332.934	-4.3944885e-05	647361.06	205695.6	-0.00044806986	205694.88	647361.7	-0.00015808824
0	0.60880697	0.6088081	-4.0846712e-10	0.02616297	0.02616297	0	63278.92	63279.027	-4.094244e-05	647617.5	204713.14	-0.0003014706	204712.39	647618.2	-0.00031066177
0	0.6082871	0.6082882	-5.434541e-10	0.025809329	0.025809327	0	63224.88	63224.992	-5.7319416e-05	647871.7	203731.08	-0.00051056984	203730.3	647872.4	-0.00030882354
0	0.6077612	0.6077623	-5.6449107e-10	0.025455909	0.025455909	0	63170.22	63170.344	-5.9775964e-05	648128.3	202738.17	-0.00051378674	202737.34	648129.06	-0.0003079044
0	0.6072318	0.6072329	-3.786648e-10	0.025102274	0.025102274	0	63115.19	63115.31	-4.0396542e-05	648386	201739.38	-0.0002867647	201738.53	648386.7	-0.00027941176
0	0.6066983	0.60669947	-4.908618e-11	0.024748769	0.02474877	0	63059.742	63059.867	-2.5930212e-06	648643.9	200734.56	-7.077206e-05	200733.69	648644.7	3.8602942e-05
0	0.6061593	0.60616064	-7.713542e-11	0.024395157	0.024395157	0	63003.72	63003.85	-1.0917984e-05	648904.25	199719.75	-0.00010753676	199718.88	648905	-5.5147057e-06
0	0.60561997	0.6056211	-1.7004854e-10	0.024041649	0.024041649	0	62947.656	62947.78	-1.7195825e-05	649160.4	198708.4	-0.00018520221	198707.5	649161.2	-4.227941e-05
0	0.6050753	0.60507655	-5.048864e-10	0.023688136	0.023688136	0	62891.05	62891.184	-5.3088697e-05	649417.9	197688.64	-0.00033869487	197687.7	649418.6	-0.0004172794
0	0.6045261	0.60452735	-3.4535633e-10	0.023334507	0.023334507	0	62833.957	62834.094	-3.7939993e-05	649677.1	196660.4	-0.0003952206	196659.42	649677.9	-0.00011029412
0	0.60397345	0.6039747	-2.910109e-10	0.022980992	0.022980992	0	62776.523	62776.66	-3.3709275e-05	649935.94	195627.97	-0.0002954963	195626.94	649936.6	-0.0001507353
0	0.6034162	0.6034175	-1.9634472e-10	0.022627389	0.022627389	0	62718.6	62718.742	-1.8287623e-05	650195.5	194588.2	-0.0001539522	194587.17	650196.4	-9.191177e-05
0	0.6028542	0.6028555	-4.0496098e-10	0.022273865	0.022273865	0	62660.19	62660.33	-4.2170712e-05	650455.75	193541.17	-0.0004453125	193540.08	650456.7	-0.000171875
0	0.6022904	0.60229176	-4.2073867e-10	0.021920254	0.021920254	0	62601.582	62601.73	-4.3671935e-05	650715.1	192492.47	-0.0004797794	192491.38	650716	-0.00013419117
0	0.60172117	0.6017226	-4.978741e-10	0.02156682	0.02156682	0	62542.42	62542.57	-5.1860425e-05	650975	191435.75	-0.0003272059	191434.62	650975.8	-0.0003915441
0	0.60114723	0.6011487	1.7530778e-12	0.021213207	0.021213207	0	62482.773	62482.92	1.0917984e-06	651235.75	190371.53	-0.00011213235	190370.33	651236.6	0.00013327206
0	0.6005695	0.600571	-4.3651638e-10	0.02085968	0.02085968	0	62422.715	62422.87	-4.4490786e-05	651497.06	189301.44	-0.0004742647	189300.23	651497.94	-0.00016911764
0	0.59998584	0.5999873	-4.50541e-10	0.020506103	0.020506103	0	62362.047	62362.21	-4.694733e-05	651760.2	188221.1	-0.00040441175	188219.86	651761.2	-0.0002665441
0	0.59940153	0.59940314	-3.6814635e-10	0.020152565	0.020152565	0	62301.32	62301.49	-3.8212944e-05	652019.06	187144.39	-0.00028630515	187143.14	652020	-0.00027389705
0	0.59881043	0.59881204	-6.872065e-10	0.019798972	0.019798972	0	62239.887	62240.05	-7.15128e-05	652281.06	186054.81	-0.0005726103	186053.52	652282	-0.00044485295
0	0.5982132	0.59821486	-1.8582624e-10	0.019445423	0.019445423	0	62177.81	62177.977	-1.9242947e-05	652545.7	184954.11	-0.00017003676	184952.77	652546.7	-0.00011213235
0	0.59761536	0.59761703	-2.7348013e-10	0.01909187	0.01909187	0	62115.668	62115.84	-2.7840859e-05	652805.7	183857.25	-0.00013878677	183855.86	652806.6	-0.00024356617
0	0.5970108	0.5970125	-3.918129e-10	0.018738285	0.018738285	0	62052.84	62053.016	-4.148834e-05	653068.5	182748.14	-0.0002757353	182746.72	653069.44	-0.0003180147
0	0.5963999	0.59640175	-5.381949e-10	0.01838475	0.01838475	0	61989.336	61989.523	-5.650057e-05	653334	181627.34	-0.00041176472	181625.89	653335	-0.00037867646
0	0.59578633	0.5957882	-1.7180163e-10	0.018031176	0.018031176	0	61925.566	61925.758	-1.6649925e-05	653597.4	180505.05	-0.0002366728	180503.52	653598.5	9.191176e-06
0	0.59516996	0.59517187	-3.61134e-10	0.017677724	0.017677724	0	61861.5	61861.69	-3.6848196e-05	653858.9	179380.66	-0.0004264706	179379.11	653859.94	-8.088235e-05
0	0.5945462	0.5945481	-3.1029476e-10	0.017324151	0.017324151	0	61796.66	61796.85	-3.329985e-05	654123.3	178242.92	-0.00028400734	178241.31	654124.4	-0.00018014706
0	0.5939187	0.5939205	-3.61134e-10	0.016970586	0.016970586	0	61731.434	61731.63	-3.930474e-05	654387.56	177100.2	-0.00031893383	177098.56	654388.6	-0.00020404412
0	0.59328574	0.59328765	-3.2782554e-10	0.016617043	0.016617043	0	61665.645	61665.855	-3.384575e-05	654652.6	175949.05	-0.00041360295	175947.38	654653.75	-5.147059e-05
0	0.5926476	0.5926497	-4.820964e-10	0.016263481	0.016263481	0	61599.336	61599.54	-5.19969e-05	654917.9	174790.55	-0.0004241728	174788.81	654919	-0.00029044118
0	0.592005	0.59200704	-1.7881394e-10	0.01590991	0.01590991	0	61532.535	61532.75	-1.9379422e-05	655183.25	173625.56	-0.00030882354	173623.78	655184.4	5.6985293e-05
0	0.59135514	0.5913573	-1.9634472e-10	0.015556336	0.015556336	0	61464.984	61465.215	-2.0607695e-05	655452.1	172446.94	-0.0003538603	172445.1	655453.25	5.882353e-05
0	0.5907038	0.590706	-2.6296168e-10	0.015202774	0.015202775	0	61397.293	61397.52	-2.6749061e-05	655716.4	171270.89	-0.00027619486	171269.06	655717.56	-0.000104779414
0	0.5900434	0.5900457	-4.9612103e-10	0.014849204	0.014849204	0	61328.65	61328.883	-5.0632152e-05	655985.5	170077.22	-0.00042509192	170075.33	655986.7	-0.00027757353
0	0.58938164	0.58938384	-2.0335703e-10	0.014495671	0.014495671	0	61259.86	61260.09	-2.1153593e-05	656250.44	168885.81	-0.00024080882	168883.88	656251.6	-3.8602942e-05
0	0.5887131	0.58871543	-5.820218e-10	0.014142107	0.014142107	0	61190.38	61190.613	-5.9775964e-05	656517.75	167682.7	-0.000542739	167680.7	656518.94	-0.0002858456
0	0.58803856	0.5880409	-6.0305877e-10	0.013788624	0.013788623	0	61120.266	61120.508	-6.195956e-05	656786.4	166469.69	-0.00041268382	166467.64	656787.56	-0.0004522059
0	0.5873562	0.5873587	-4.189856e-10	0.013435051	0.013435051	0	61049.344	61049.594	-4.4763736e-05	657057.9	165242.98	-0.0004319853	165240.86	657059.1	-0.00020036765
0	0.5866712	0.5866736	-1.2096237e-10	0.013081485	0.013081485	0	60978.14	60978.395	-1.3920429e-05	657324.5	164017.27	-0.00030193015	164015.11	657325.75	0.00013235294
0	0.5859817	0.5859843	-3.628871e-10	0.012727955	0.012727955	0	60906.477	60906.746	-3.602935e-05	657593.75	162782.9	-0.00038005513	162780.67	657595	-0.0001507353
0	0.5852837	0.5852863	-5.1014565e-10	0.012374384	0.012374384	0	60833.938	60834.203	-5.2952222e-05	657864.2	161535.38	-0.00045588234	161533.08	657865.5	-0.00026838234
0	0.58458126	0.5845839	-3.9794865e-10	0.0120208245	0.012020825	0	60760.914	60761.184	-3.957769e-05	658135.25	160280.81	-0.00034007351	160278.48	658136.7	-0.0002242647
0	0.5838703	0.58387303	-3.6989942e-10	0.011667253	0.011667253	0	60687.016	60687.297	-3.889532e-05	658409.25	159011.58	-0.00031433825	159009.2	658410.6	-0.00023621324
0	0.58315766	0.5831605	-1.2446852e-10	0.0113136945	0.0113136945	0	60612.953	60613.242	-1.24192065e-05	658678.3	157744.98	-0.00015992647	157742.53	658679.7	3.6764707e-06
0	0.5824363	0.5824391	-4.189856e-10	0.010960127	0.010960127	0	60537.97	60538.266	-4.4490786e-05	658951.25	156462.1	-0.00037637868	156459.56	658952.6	-0.00022610294
0	0.58170885	0.58171177	-4.2073867e-10	0.010606604	0.010606604	0	60462.355	60462.664	-4.408136e-05	659224.4	155170.67	-0.00043106618	155168.05	659225.75	-0.00017830882
0	0.5809731	0.5809761	-8.064158e-11	0.010253051	0.010253051	0	60385.887	60386.2	-7.915539e-06	659500.9	153864.17	-0.00037959559	153861.52	659502.4	0.00025
0	0.58023274	0.58023584	-3.4185016e-10	0.009899486	0.009899486	0	60308.94	60309.258	-3.35728e-05	659775.6	152553.03	-0.00026148898	152550.31	659777.2	-0.00020588236
0	0.579486	0.5794891	-2.6120858e-10	0.009545935	0.009545935	0	60231.312	60231.637	-2.6612586e-05	660051.1	151232.08	-0.0003180147	151229.28	660052.6	-5.3308824e-05
0	0.57873505	0.5787382	-4.189856e-10	0.009192375	0.009192375	0	60153.27	60153.598	-4.4763736e-05	660324.1	149907.81	-0.00031985293	149904.92	660325.75	-0.00030514706
0	0.5779723	0.5779755	-4.5580023e-10	0.008838862	0.008838862	0	60073.99	60074.324	-4.626496e-05	660603.94	148560.27	-0.00040027575	148557.31	660605.56	-0.00026286766
0	0.5772078	0.57721114	-3.9093634e-10	0.008485293	0.008485293	0	59994.523	59994.863	-3.889532e-05	660878.5	147215.45	-0.00036902574	147212.4	660880.1	-0.00017647058
0	0.5764309	0.57643425	-3.8217096e-10	0.008131741	0.008131741	0	59913.77	59914.125	-3.8758844e-05	661160.06	145846.33	-0.00036213236	145843.23	661161.75	-0.00018933823
0	0.57564956	0.575653	-6.3461414e-10	0.007778168	0.007778168	0	59832.562	59832.92	-6.619028e-05	661439.44	144473.23	-0.00055055146	144470.05	661441.06	-0.0003694853
0	0.57486045	0.57486403	-4.8121984e-10	0.007424602	0.007424602	0	59750.547	59750.914	-4.885798e-05	661719.8	143088.23	-0.0004453125	143084.94	661721.44	-0.00021047794
0	0.5740671	0.57407075	-2.6646782e-10	0.0070710536	0.0070710536	0	59668.074	59668.46	-2.8523233e-05	661998.06	141699.25	-0.00030009192	141695.86	661999.8	-8.823529e-05
0	0.57326305	0.5732668	-4.373929e-10	0.006717525	0.0067175254	0	59584.508	59584.895	-4.4763736e-05	662280.6	140291.16	-0.00042922795	140287.72	662282.4	-0.00019209558