# t (s)	mx ()	my ()	mz ()	B_extx (T)	B_exty (T)	B_extz (T)	m_fullx (A/m)	m_fully (A/m)	m_fullz (A/m)	m_full.region1x (A/m)	m_full.region1y (A/m)	m_full.region1z (A/m)	m_full.region2x (A/m)	m_full.region2y (A/m)	m_full.region2z (A/m)
0	0.64856946	0.6485711	-2.5702876e-10	0.07071087	0.07071087	0	83172.555	83172.76	-3.5e-05	638089.06	269909.9	-9.552402e-05	269908.28	638089.6	-0.0002899836
0	0.6484742	0.64847374	-3.3185993e-10	0.07056911	0.07056911	0	83160.33	83160.27	-4.1875e-05	638176.5	269687.2	-0.00027804312	269687.34	638176	-0.00023881004
0	0.64837366	0.648373	-2.7980346e-10	0.07042788	0.07042788	0	83147.44	83147.34	-3.625e-05	638269	269453.78	-0.00016375545	269454.16	638268.4	-0.00023369268
0	0.64827174	0.648271	-4.3597284e-10	0.07028652	0.07028653	0	83134.36	83134.28	-5.875e-05	638361.8	269218.22	-0.00038380185	269218.53	638361.2	-0.0002575737
0	0.6481702	0.64816946	-2.2123994e-10	0.070144884	0.070144884	0	83121.34	83121.26	-2.6875e-05	638455.25	268982.62	-0.00024222162	268983	638454.75	-5.4585154e-05
0	0.6480679	0.6480671	-4.3597284e-10	0.07000352	0.07000352	0	83108.22	83108.125	-5.125e-05	638549.7	268744.94	-0.00031386464	268745.34	638549.06	-0.00025075054
0	0.6479674	0.64796674	-4.3597284e-10	0.06986229	0.06986229	0	83095.34	83095.25	-5.15625e-05	638641.06	268512.94	-0.00030192413	268513.3	638640.4	-0.00028316048
0	0.64786536	0.64786464	-3.969305e-10	0.069720544	0.069720544	0	83082.26	83082.17	-5.375e-05	638734.06	268277.06	-0.00025927948	268277.44	638733.5	-0.00035821507
0	0.6477626	0.6477619	-3.5788816e-10	0.069579184	0.06957919	0	83069.08	83068.99	-4.5e-05	638827.44	268039.9	-0.00031386464	268040.28	638826.75	-0.0002456332
0	0.64765894	0.6476583	-2.0171878e-10	0.069437966	0.069437966	0	83055.78	83055.695	-2.5625e-05	638922.44	267799.66	-0.000112581874	267800.03	638921.9	-0.00020469433
0	0.6475572	0.6475564	-2.9281758e-10	0.069296576	0.069296576	0	83042.734	83042.65	-3.0625e-05	639014.7	267564.97	-0.0001466976	267565.34	639014.06	-0.00023881004
0	0.6474545	0.6474537	-3.2535286e-10	0.06915496	0.069154955	0	83029.56	83029.48	-4.40625e-05	639107.8	267328.12	-0.0002456332	267328.47	639107.2	-0.00022686954
0	0.6473505	0.6473498	-2.0822584e-10	0.069013596	0.069013596	0	83016.23	83016.14	-3.0625e-05	639202.1	267088.25	-0.00025416212	267088.6	639201.5	-6.823144e-05
0	0.64724773	0.647247	-3.4487405e-10	0.068872236	0.068872236	0	83003.05	83002.95	-4.125e-05	639294.75	266851.6	-0.000295101	266852	639294.2	-0.00019275383
0	0.6471422	0.64714146	-2.1147936e-10	0.06873064	0.06873064	0	82989.51	82989.42	-2e-05	639390.44	266608.25	-8.1877726e-05	266608.62	639389.8	-0.00018763647
0	0.6470398	0.6470392	-2.732964e-10	0.06858927	0.06858927	0	82976.39	82976.3	-3.6875e-05	639482.1	266373.22	-3.411572e-05	266373.6	639481.5	-0.00040938865
0	0.6469348	0.64693403	-1.9195819e-10	0.068448015	0.068448015	0	82962.914	82962.83	-2.125e-05	639576.44	266131.94	-0.00016375545	266132.28	639575.75	-0.00015010918
0	0.64683026	0.64682966	-2.6678934e-10	0.06830665	0.06830665	0	82949.516	82949.43	-4.25e-05	639670.06	265892.1	-0.00020469433	265892.47	639669.4	-0.00023881004
0	0.6467251	0.64672434	-3.9042342e-11	0.06816504	0.06816504	0	82936.04	82935.94	-7.8125e-06	639764.56	265650.12	-2.2175218e-05	265650.53	639764	-7.846616e-05
0	0.64661986	0.64661914	-3.3511344e-10	0.068023674	0.068023674	0	82922.52	82922.44	-4.375e-05	639858.56	265408.78	-0.00018422489	265409.2	639857.94	-0.0002899836
0	0.6465139	0.64651316	-2.8631053e-10	0.06788232	0.06788232	0	82908.945	82908.86	-3.625e-05	639954.5	265164.56	-0.0002456332	265164.97	639953.94	-0.00017740174
0	0.6464087	0.64640796	-4.880293e-10	0.067740716	0.067740716	0	82895.445	82895.36	-5.9375e-05	640048.5	264923.22	-0.0004179176	264923.62	640047.9	-0.0002797489
0	0.64630413	0.6463035	-1.7569055e-10	0.06759932	0.06759932	0	82882.05	82881.95	-1.625e-05	640141.4	264684.1	-7.1643015e-05	264684.5	640140.75	-0.00017399018
0	0.6461981	0.64619726	-3.1559227e-10	0.06745809	0.06745809	0	82868.43	82868.34	-4.25e-05	640235.94	264440.97	-0.0002456332	264441.38	640235.2	-0.0002200464
0	0.6460922	0.6460914	-1.594229e-10	0.067316726	0.067316726	0	82854.86	82854.766	-2.09375e-05	640329.9	264198.72	-0.00012452238	264199.1	640329.3	-0.0001586381
0	0.64598477	0.64598405	-1.0736644e-10	0.067174986	0.06717498	0	82841.086	82840.99	-1.3125e-05	640424.94	263953.44	-0.00012963974	263953.8	640424.25	-2.0469432e-05
0	0.6458787	0.64587796	-4.4247989e-10	0.06703377	0.06703377	0	82827.48	82827.39	-5.75e-05	640519.1	263710.6	-0.00031386464	263711.03	640518.44	-0.00032068777
0	0.64576936	0.64576864	-2.83057e-10	0.066892385	0.066892385	0	82813.47	82813.37	-3.75e-05	640616.3	263460.4	-0.0002200464	263460.84	640615.7	-0.00020128275
0	0.6456638	0.6456629	-4.55494e-11	0.066750765	0.066750765	0	82799.914	82799.82	-1.5625e-06	640709.1	263219.6	-8.699509e-05	263219.97	640708.56	3.2409935e-05
0	0.6455565	0.64555573	-4.0343756e-10	0.0666094	0.0666094	0	82786.17	82786.06	-6e-05	640803.94	262974.66	-0.00040938865	262975.06	640803.4	-0.00023369268
0	0.6454482	0.6454475	-4.8152227e-10	0.06646816	0.066468164	0	82772.29	82772.19	-5.875e-05	640899.1	262728.06	-0.00037527294	262728.47	640898.44	-0.00028657206
0	0.64534044	0.6453396	-5.8563515e-10	0.06632643	0.06632643	0	82758.47	82758.37	-7.3125e-05	640994.06	262482.12	-0.00025416212	262482.5	640993.5	-0.0005526747
0	0.64523065	0.6452299	-1.138735e-10	0.06618507	0.06618507	0	82744.38	82744.28	-1.125e-05	641090.8	262231.72	-0.00015010918	262232.12	641090.2	-3.411572e-05
0	0.6451222	0.6451214	-3.5788816e-10	0.06604384	0.06604384	0	82730.48	82730.375	-4.5e-05	641185.94	261984.73	-0.0003036299	261985.17	641185.25	-0.00026269106
0	0.64501476	0.6450139	-4.7176163e-10	0.065902434	0.065902434	0	82716.695	82716.59	-6.34375e-05	641279.4	261740.83	-0.00025927948	261741.25	641278.75	-0.00045715066
0	0.64490527	0.64490455	-5.791281e-10	0.06576085	0.06576085	0	82702.64	82702.555	-7.125e-05	641374.6	261492.3	-0.0004503275	261492.7	641374.06	-0.00033603984
0	0.64479584	0.6447951	-3.8391637e-10	0.065619476	0.06561948	0	82688.62	82688.53	-4.71875e-05	641470	261243.72	-0.00033945142	261244.17	641469.44	-0.00021151747
0	0.6446853	0.6446847	-1.3990173e-10	0.06547824	0.06547824	0	82674.45	82674.35	-1.125e-05	641566.25	260992.89	-4.776201e-05	260993.31	641565.56	-0.0001466976
0	0.64457524	0.6445745	-5.205646e-10	0.06533652	0.06533652	0	82660.33	82660.23	-7e-05	641661.9	260743.12	-0.00028657206	260743.55	641661.2	-0.00047079695
0	0.64446634	0.64446557	-3.6764874e-10	0.06519514	0.06519514	0	82646.37	82646.266	-4.875e-05	641756.9	260495.53	-0.00028316048	260495.98	641756.25	-0.0002456332
0	0.6443551	0.6443544	-4.6200108e-10	0.065053925	0.065053925	0	82632.1	82632	-5.59375e-05	641853	260243.77	-0.0002558679	260244.2	641852.4	-0.00036333242
0	0.644245	0.6442444	-4.099446e-10	0.064912505	0.06491251	0	82617.99	82617.89	-5.5e-05	641948.6	259994.16	-0.00038209607	259994.55	641947.94	-0.0002933952
0	0.64413357	0.6441328	-4.099446e-10	0.06477093	0.06477093	0	82603.695	82603.59	-5.21875e-05	642044.9	259741.7	-0.00028486626	259742.12	642044.2	-0.0003172762
0	0.6440228	0.64402205	-3.3185993e-10	0.06462956	0.06462956	0	82589.49	82589.39	-4.28125e-05	642140.56	259490.94	-9.2112445e-05	259491.38	642139.9	-0.00038550765
0	0.6439103	0.64390945	-3.6764874e-10	0.06448818	0.06448818	0	82575.055	82574.95	-4.25e-05	642237.06	259236.95	-0.00028657206	259237.42	642236.25	-0.00021663483
0	0.6437979	0.64379704	-4.0669107e-10	0.0643466	0.0643466	0	82560.64	82560.53	-5.03125e-05	642334.75	258981.75	-0.00026269106	258982.2	642334.06	-0.0003275109
0	0.64368576	0.643685	-4.327193e-10	0.06420522	0.06420524	0	82546.266	82546.16	-5.4375e-05	642431.06	258728.64	-0.00025927948	258729.08	642430.4	-0.00034968613
0	0.64357483	0.64357406	-2.4726818e-10	0.064063966	0.064063966	0	82532.03	82531.93	-2.75e-05	642525.5	258478.81	-0.00011599345	258479.27	642524.8	-0.0002558679
0	0.6434622	0.6434613	-1.2363409e-10	0.063922584	0.06392258	0	82517.586	82517.48	-2e-05	642621.6	258224.88	-9.3818235e-05	258225.33	642621.06	-0.000105758736
0	0.6433487	0.643348	-2.7980346e-10	0.06378101	0.06378101	0	82503.05	82502.945	-3.5e-05	642718.4	257969.52	-0.00023028112	257969.94	642717.75	-0.00011940502
0	0.6432338	0.64323306	-5.205646e-10	0.06363964	0.06363963	0	82488.31	82488.195	-7e-05	642817.3	257709.58	-0.00043668124	257710.03	642816.7	-0.0003326283
0	0.64312196	0.6431212	-3.3511344e-10	0.06349824	0.06349825	0	82473.97	82473.86	-3.8125e-05	642912.1	257458.19	-0.0002319869	257458.64	642911.5	-0.00028316048
0	0.6430088	0.643008	-3.3185993e-10	0.06335668	0.06335668	0	82459.45	82459.34	-4.25e-05	643008.56	257203.31	-0.00032409935	257203.77	643007.9	-0.0001330513
0	0.6428949	0.6428941	-3.969305e-10	0.063215286	0.06321527	0	82444.83	82444.73	-4.75e-05	643104.8	256947.5	-0.00036844978	256947.95	643104.2	-0.00018934224
0	0.64277935	0.6427786	-3.7740933e-10	0.06307404	0.06307404	0	82430.016	82429.914	-4.75e-05	643202.75	256687.94	-0.00017569595	256688.38	643202	-0.00034456878
0	0.64266574	0.64266497	-9.10988e-11	0.06293266	0.062932655	0	82415.46	82415.36	-8.75e-06	643299.25	256432.38	-4.264465e-05	256432.86	643298.56	-6.823144e-05
0	0.6425508	0.64255	-2.2449348e-10	0.062790945	0.062790945	0	82400.72	82400.61	-3.25e-05	643396.25	256174.39	-0.00015010918	256174.88	643395.5	-0.00018593068
0	0.6424358	0.6424349	-2.8631053e-10	0.062649705	0.062649705	0	82385.96	82385.86	-3.625e-05	643493.56	255916.02	-0.00025245635	255916.5	643492.9	-0.0001705786
0	0.64232063	0.6423198	-2.3425406e-10	0.06250833	0.06250833	0	82371.195	82371.09	-2.78125e-05	643590.44	255657.98	-0.00012452238	255658.48	643589.75	-0.00020469433
0	0.6422043	0.64220345	-4.3597284e-10	0.06236674	0.06236674	0	82356.27	82356.17	-5.625e-05	643687.6	255397.95	-0.00028657206	255398.42	643686.9	-0.00032239355
0	0.64208895	0.6420881	-1.7569055e-10	0.062225346	0.062225346	0	82341.49	82341.38	-2.875e-05	643784.9	255139.16	-0.00018593068	255139.61	643784.2	-8.52893e-05
0	0.6419723	0.6419715	-3.8391637e-10	0.06208412	0.06208412	0	82326.53	82326.414	-5.1875e-05	643882.8	254877.94	-0.00033945142	254878.4	643882.06	-0.00021663483
0	0.6418545	0.64185363	-3.871699e-10	0.061942417	0.061942417	0	82311.42	82311.31	-4.375e-05	643981.9	254613.9	-0.00030021835	254614.4	643981.1	-0.00024222162
0	0.64173913	0.64173836	-9.435233e-11	0.061801024	0.06180102	0	82296.63	82296.52	-9.375e-06	644077.5	254356.84	7.505459e-05	254357.38	644076.8	-0.00019787118
0	0.6416207	0.6416198	-1.2038057e-10	0.06165979	0.06165979	0	82281.44	82281.32	-2.125e-05	644177.06	254091.44	-0.00012963974	254091.94	644176.3	-6.823144e-05
0	0.6415047	0.64150393	-5.10804e-10	0.061518367	0.061518367	0	82266.56	82266.46	-6.25e-05	644272.94	253833.19	-0.00039574236	253833.7	644272.25	-0.000295101
0	0.6413868	0.6413859	-6.702269e-10	0.06137681	0.061376818	0	82251.445	82251.336	-8.40625e-05	644371	253570.06	-0.00038550765	253570.58	644370.25	-0.00055096886
0	0.6412685	0.64126766	-2.375076e-10	0.061235435	0.061235435	0	82236.27	82236.16	-3.125e-05	644468.8	253306.61	-7.846616e-05	253307.14	644468.06	-0.0002558679
0	0.6411509	0.64115006	-8.459174e-11	0.061094042	0.061094042	0	82221.195	82221.08	-1e-05	644566.44	253044.4	-6.823144e-05	253044.9	644565.7	-5.4585154e-05
0	0.6410313	0.64103043	-3.2209935e-10	0.060952503	0.0609525	0	82205.85	82205.75	-4.03125e-05	644664.94	252778.38	-0.00027292577	252778.88	644664.3	-0.00019104804
0	0.64091325	0.6409124	-3.0908523e-10	0.060811102	0.060811102	0	82190.72	82190.61	-4e-05	644762.9	252515.27	-0.00024904477	252515.77	644762.2	-0.00017740174
0	0.6407918	0.6407909	-5.205646e-10	0.06066984	0.06066984	0	82175.13	82175.02	-6.5e-05	644863.7	252244.34	-0.0004912664	252244.84	644862.9	-0.0002797489
0	0.6406747	0.64067376	-2.602823e-10	0.060528446	0.060528446	0	82160.12	82160.01	-2.9375e-05	644959.25	251984.73	-0.0002661026	251985.27	644958.44	-8.870087e-05
0	0.64055413	0.64055324	-5.0429694e-10	0.0603869	0.060386896	0	82144.65	82144.55	-6.71875e-05	645058.06	251717.14	-0.00043326966	251717.67	645057.3	-0.0003172762
0	0.6404348	0.640434	-2.1798642e-10	0.060245506	0.060245506	0	82129.375	82129.26	-2.75e-05	645156.2	251452.1	-0.00027292577	251452.62	645155.44	-3.923308e-05
0	0.6403136	0.6403127	-4.197052e-10	0.060104124	0.060104124	0	82113.82	82113.7	-5.25e-05	645255.06	251183.42	-0.00042132914	251183.95	645254.4	-0.00021151747
0	0.6401934	0.64019245	-4.1319814e-10	0.059962578	0.05996258	0	82098.4	82098.28	-5.5625e-05	645354.06	250916.25	-0.0002797489	250916.78	645353.3	-0.00033603984
0	0.6400729	0.6400719	-1.8545113e-10	0.059821147	0.059821147	0	82082.945	82082.836	-2.125e-05	645452.4	250649.16	-9.552402e-05	250649.69	645451.56	-0.0001330513
0	0.6399509	0.63994986	-1.8545113e-10	0.059679918	0.059679918	0	82067.29	82067.17	-2.1875e-05	645551.4	250379.16	-8.1877726e-05	250379.7	645550.7	-0.00020128275
0	0.63982916	0.63982826	-2.7004288e-10	0.05953851	0.05953851	0	82051.69	82051.57	-3.125e-05	645650.7	250109.6	-0.00017569595	250110.12	645650	-0.00020128275
0	0.6397074	0.63970643	-4.522405e-10	0.059396826	0.059396826	0	82036.08	82035.96	-6.125e-05	645749.2	249840.62	-0.0004639738	249841.16	645748.44	-0.00023369268
0	0.6395858	0.63958496	-8.784527e-11	0.059255596	0.059255596	0	82020.484	82020.375	-1.15625e-05	645848.2	249571.4	-0.0001449918	249571.94	645847.5	-6.8231443e-06
0	0.63946354	0.6394626	-2.6353583e-10	0.059114188	0.059114188	0	82004.805	82004.69	-3.53125e-05	645947.4	249301.05	-0.00021834062	249301.58	645946.6	-0.0001944596
0	0.6393409	0.63934	-2.5377522e-10	0.058972627	0.058972627	0	81989.086	81988.96	-3.375e-05	646046.44	249030.4	-0.00019104804	249030.95	646045.75	-0.00019616539
0	0.6392173	0.6392164	-2.4401464e-10	0.058831234	0.058831234	0	81973.23	81973.11	-3.34375e-05	646145.75	248757.9	-0.00028827784	248758.5	646145	-9.893559e-05
0	0.6390936	0.6390927	-2.1147936e-10	0.05868999	0.05868999	0	81957.36	81957.24	-2.3125e-05	646245.2	248485.25	-0.00017569595	248485.84	646244.44	-0.0001228166
0	0.6389708	0.63896984	-2.960711e-10	0.0585483	0.0585483	0	81941.62	81941.51	-4.5e-05	646344.56	248214.08	-0.00027292577	248214.64	646343.75	-0.00023369268
0	0.63884616	0.63884515	-2.5377522e-10	0.058406904	0.058406904	0	81925.625	81925.51	-3.25e-05	646444.6	247939.4	-0.00027463154	247940	646443.8	-8.3583516e-05
0	0.6387227	0.63872176	-4.8152227e-10	0.058265664	0.058265664	0	81909.8	81909.69	-5.5625e-05	646543.44	247667.78	-0.00037186136	247668.34	646542.7	-0.00030874726
0	0.63859713	0.6385962	-5.7587457e-10	0.05812423	0.05812423	0	81893.695	81893.58	-7.125e-05	646643.4	247392	-0.00039574236	247392.6	646642.56	-0.00044521014
0	0.6384721	0.6384711	-4.3597284e-10	0.057982713	0.057982713	0	81877.66	81877.54	-5.625e-05	646743.1	247117.22	-0.00034968613	247117.78	646742.4	-0.00027292577
0	0.6383467	0.6383457	-2.0171878e-10	0.057841305	0.05784131	0	81861.57	81861.46	-2.875e-05	646843.25	246841.55	-0.00013816867	246842.12	646842.44	-0.0001970183
0	0.6382217	0.6382207	-3.0257816e-10	0.057699904	0.057699904	0	81845.555	81845.43	-4e-05	646943.1	246566.73	-0.00019104804	246567.3	646942.44	-0.00025245635
0	0.6380957	0.6380947	-4.6525458e-10	0.057558388	0.057558395	0	81829.4	81829.27	-5.8125e-05	647043.25	246290.22	-0.00029680677	246290.78	647042.44	-0.00036844978
0	0.6379685	0.6379674	-2.3100054e-10	0.057416987	0.057416987	0	81813.07	81812.945	-3.1875e-05	647145.06	246010.11	-0.00015010918	246010.66	647144.4	-0.00019104804
0	0.6378437	0.6378428	-3.5463463e-10	0.05727571	0.05727571	0	81797.08	81796.95	-4.5e-05	647243	245737.6	-0.00020469433	245738.2	647242.3	-0.00031386464
0	0.63771564	0.6377146	-3.7740933e-10	0.0571343	0.0571343	0	81780.65	81780.53	-4.4375e-05	647343.8	245457.5	-0.00034968613	245458.08	647343	-0.00015010918
0	0.6375896	0.6375886	-1.3990173e-10	0.05699279	0.05699279	0	81764.48	81764.36	-1.625e-05	647443.9	245180.89	-7.33488e-05	245181.48	647443.06	-0.000104052946
0	0.6374618	0.63746077	-4.1319814e-10	0.056851387	0.05685139	0	81748.09	81747.98	-4.625e-05	647544.7	244901.17	-0.0002456332	244901.78	647543.9	-0.00029168942
0	0.63733363	0.6373327	-3.8066286e-10	0.056709986	0.05670998	0	81731.664	81731.55	-4.8125e-05	647645.1	244621.39	-0.00045885643	244621.97	647644.3	-0.00011599345
0	0.63720465	0.6372037	-2.4401464e-10	0.05656847	0.05656847	0	81715.12	81714.99	-3.75e-05	647747.4	244338.5	-0.00020128275	244339.1	647746.6	-0.00019360671
0	0.63707614	0.6370751	-3.2209935e-10	0.05642703	0.05642703	0	81698.64	81698.516	-3.75e-05	647848.06	244057.88	-0.0002456332	244058.44	647847.4	-0.00017569595
0	0.6369487	0.6369477	-3.188458e-10	0.056285787	0.056285787	0	81682.3	81682.18	-4.34375e-05	647947.2	243780.36	-0.00023539847	243780.97	647946.44	-0.00021492904
0	0.6368199	0.6368189	-3.871699e-10	0.05614437	0.056144364	0	81665.78	81665.66	-4.6875e-05	648047.8	243499.45	-0.0003786845	243500.05	648047	-0.0001449918
0	0.6366903	0.6366893	-2.7980346e-10	0.0560027	0.056002706	0	81649.164	81649.04	-3.875e-05	648148.5	243217.22	-0.00010917031	243217.89	648147.8	-0.00031557042
0	0.63656026	0.6365593	-3.969305e-10	0.05586147	0.055861466	0	81632.5	81632.37	-5.0625e-05	648250	242933.8	-0.00025927948	242934.4	648249.25	-0.00033433406
0	0.636431	0.6364301	-2.4401464e-10	0.05572005	0.055720054	0	81615.914	81615.79	-2.6875e-05	648350.3	242652.53	-0.00017399018	242653.16	648349.56	-0.00011940502
0	0.6362981	0.63629705	-2.9932465e-10	0.05557856	0.05557856	0	81598.87	81598.74	-3.5e-05	648454.1	242362.55	-0.00019104804	242363.17	648453.44	-0.00017740174
0	0.6361696	0.63616866	-4.2621226e-10	0.0554371	0.055437103	0	81582.39	81582.266	-5.53125e-05	648552.9	242083.94	-0.0002661026	242084.58	648552.1	-0.00036162665
0	0.6360377	0.6360367	-5.0755045e-10	0.05529586	0.05529586	0	81565.48	81565.34	-6.75e-05	648654.7	241797.5	-0.0002661026	241798.16	648653.9	-0.00047420853
0	0.6359072	0.6359061	-4.5874754e-10	0.055154454	0.055154454	0	81548.73	81548.6	-6e-05	648755.6	241513.75	-0.00031386464	241514.39	648754.8	-0.000390625
0	0.63577473	0.6357737	-2.4726818e-10	0.05501279	0.05501279	0	81531.75	81531.62	-3.0625e-05	648857.44	241226.6	-0.00020981168	241227.23	648856.56	-0.00015352074
0	0.63564265	0.6356417	-4.4898696e-10	0.054871544	0.054871544	0	81514.81	81514.69	-5.5e-05	648959	240940.1	-0.00026098525	240940.72	648958.1	-0.0003880663
0	0.6355103	0.6355093	-2.2449348e-10	0.05473013	0.05473012	0	81497.836	81497.71	-2.875e-05	649060.6	240653.14	-0.00019104804	240653.78	649059.8	-0.00015181495
0	0.6353779	0.6353769	-4.4573342e-10	0.054588605	0.054588605	0	81480.86	81480.734	-5.9375e-05	649162.3	240366.06	-0.00029680677	240366.7	649161.56	-0.00039574236
0	0.63524497	0.63524395	-3.0908523e-10	0.05444718	0.05444718	0	81463.805	81463.68	-4.125e-05	649264.3	240077.95	-0.00021663483	240078.6	649263.5	-0.0002814547
0	0.6351113	0.6351103	-7.8084685e-11	0.05430595	0.05430595	0	81446.67	81446.54	-1e-05	649366.5	239788.75	-9.552402e-05	239789.39	649365.56	-5.4585154e-05
0	0.63497776	0.63497674	-2.4401464e-10	0.054164287	0.054164287	0	81429.55	81429.414	-3.78125e-05	649468.06	239500.19	-0.00020298854	239500.86	649467.3	-0.00019787118
0	0.63484335	0.63484246	-2.27747e-10	0.05402286	0.05402286	0	81412.31	81412.19	-2.71875e-05	649570.25	239209.84	-0.0002933952	239210.48	649569.5	-2.0469432e-05
0	0.63470846	0.6347074	-3.969305e-10	0.053881623	0.053881623	0	81395.016	81394.88	-5e-05	649672.6	238918.66	-0.00034798036	238919.3	649671.75	-0.00022345797
0	0.63457453	0.63457346	-3.9367698e-10	0.053740162	0.053740162	0	81377.836	81377.7	-4.96875e-05	649774.44	238629.25	-0.00031557042	238629.92	649773.56	-0.0002695142
0	0.6344392	0.6344381	-2.27747e-10	0.053598687	0.053598683	0	81360.484	81360.35	-2.75e-05	649876.44	238337.73	-0.00027292577	238338.38	649875.7	-9.040666e-05
0	0.63430333	0.6343023	-3.969305e-10	0.053457264	0.053457264	0	81343.055	81342.92	-5.125e-05	649979.2	238044.78	-0.0001944596	238045.45	649978.44	-0.0003940366
0	0.63416785	0.6341668	-3.5788816e-10	0.05331584	0.05331584	0	81325.69	81325.55	-4.4375e-05	650081.5	237752.84	-0.00033092248	237753.52	650080.7	-0.00020469433
0	0.6340317	0.6340306	-4.3922638e-10	0.053174376	0.053174376	0	81308.22	81308.086	-5.40625e-05	650184	237459.67	-0.00028486626	237460.34	650183.1	-0.00032239355
0	0.63389367	0.6338927	-1.1061997e-10	0.05303295	0.053032946	0	81290.52	81290.39	-1.5e-05	650288.75	237161.78	-6.823144e-05	237162.45	650287.94	-8.1877726e-05
0	0.6337588	0.63375765	-2.9932465e-10	0.05289166	0.05289166	0	81273.22	81273.086	-4.125e-05	650389.3	236872.27	-0.00021151747	236872.94	650388.44	-0.0002319869
0	0.63362134	0.63362026	-4.0343756e-10	0.052750226	0.052750226	0	81255.6	81255.46	-5e-05	650492.06	236577.12	-0.00037015555	236577.81	650491.3	-0.00020981168
0	0.6334837	0.63348264	-1.6267643e-10	0.05260877	0.052608766	0	81237.95	81237.805	-1.75e-05	650594.9	236281.58	-0.0001228166	236282.27	650594.06	-6.9937225e-05
0	0.6333454	0.63334435	-1.3014115e-11	0.052467342	0.052467342	0	81220.21	81220.08	-1.25e-06	650698.1	235984.72	-5.117358e-05	235985.44	650697.25	3.7527294e-05
0	0.6332072	0.633206	-4.5874754e-10	0.052325904	0.052325908	0	81202.49	81202.34	-5.6875e-05	650801.44	235687.88	-0.00039744814	235688.61	650800.6	-0.00025416212
0	0.63306797	0.6330669	-6.604663e-10	0.05218446	0.05218446	0	81184.64	81184.5	-8.75e-05	650904.3	235390.16	-0.0005049127	235390.86	650903.5	-0.00045544488
0	0.632928	0.632927	-4.847758e-10	0.052042987	0.052042987	0	81166.69	81166.55	-5.375e-05	651009.56	235088.98	-0.000318982	235089.69	651008.75	-0.00032068777
0	0.632789	0.63278794	-4.197052e-10	0.051901728	0.051901728	0	81148.87	81148.73	-5.5e-05	651112.56	234791.34	-0.00032239355	234792.08	651111.75	-0.00028486626
0	0.6326507	0.63264954	-1.821976e-10	0.051760294	0.051760297	0	81131.12	81130.98	-2.25e-05	651214.1	234496.06	-8.1877726e-05	234496.75	651213.3	-0.00013816867
0	0.6325109	0.6325097	-1.594229e-10	0.051618665	0.051618673	0	81113.195	81113.055	-2.25e-05	651317.25	234197.27	-0.00019104804	234197.97	651316.44	-8.52893e-05
0	0.6323699	0.6323688	-3.1559227e-10	0.05147742	0.05147742	0	81095.11	81094.96	-3.53125e-05	651421.06	233895.94	-0.0003940366	233896.66	651420.4	-5.6290937e-05
0	0.63222927	0.6322282	-3.4487405e-10	0.051335983	0.051335983	0	81077.086	81076.94	-4.75e-05	651524.7	233595.55	-0.0002678084	233596.27	651523.9	-0.00021492904
0	0.6320877	0.63208663	-2.27747e-10	0.051194493	0.051194493	0	81058.93	81058.79	-2.59375e-05	651628.8	233293.3	-0.0001944596	233294.05	651627.94	-0.0001228166
0	0.63194656	0.63194543	-4.880293e-10	0.051053066	0.051053066	0	81040.83	81040.68	-5.90625e-05	651732.2	232992.17	-0.0004042713	232992.88	651731.4	-0.00026439683
0	0.6318047	0.6318036	-3.2535287e-11	0.050911807	0.05091181	0	81022.63	81022.484	-6.25e-06	651836.06	232689.73	4.0938863e-05	232690.45	651835.25	-0.0001586381
0	0.63166183	0.6316607	-3.0257816e-10	0.050770186	0.050770186	0	81004.305	81004.17	-3.875e-05	651940.44	232385.42	-0.00020128275	232386.14	651939.6	-0.00021492904
0	0.63151777	0.6315166	-3.2209935e-10	0.050628755	0.050628755	0	80985.83	80985.695	-4.53125e-05	652046.3	232077.86	-0.0003292167	232078.61	652045.44	-0.00015010918
0	0.63137645	0.63137525	-2.8956404e-10	0.050487496	0.050487496	0	80967.71	80967.57	-3.625e-05	652148.6	231777.7	-0.00013646288	231778.45	652147.7	-0.0002695142
0	0.63123316	0.631232	-2.6678934e-10	0.050346017	0.050346017	0	80949.34	80949.2	-3.5e-05	652252.44	231473.25	-0.00017228439	231474	652251.7	-0.00022345797
0	0.6310876	0.6310864	-3.9042344e-10	0.050204586	0.05020459	0	80930.664	80930.52	-5.03125e-05	652358.8	231163.02	-0.00036333242	231163.78	652358	-0.0002319869
0	0.63094354	0.6309424	-3.0257816e-10	0.05006314	0.050063144	0	80912.2	80912.055	-4.25e-05	652463.06	230857.14	-0.00021834062	230857.9	652462.25	-0.00025075054
0	0.6308009	0.6307997	-5.0429694e-10	0.049921695	0.049921695	0	80893.914	80893.766	-6.34375e-05	652565.2	230555.31	-0.00031386464	230556.08	652564.4	-0.00044691595
0	0.63065505	0.6306539	-1.0736644e-10	0.04978028	0.04978028	0	80875.21	80875.06	-1.71875e-05	652670.3	230246.16	-8.52893e-05	230246.9	652669.4	-0.00010064137
0	0.6305104	0.6305092	-4.55494e-11	0.049638826	0.049638826	0	80856.66	80856.51	-5e-06	652774.4	229939.33	-6.823144e-05	229940.1	652773.6	-1.3646289e-05
0	0.63036466	0.63036346	-2.9932465e-10	0.04949753	0.04949753	0	80837.96	80837.81	-4e-05	652879.25	229630.48	-0.00031557042	229631.23	652878.4	-0.00018422489
0	0.63021845	0.6302173	-8.784527e-11	0.04935608	0.049356084	0	80819.22	80819.07	-1.375e-05	652984	229321.06	-0.0001228166	229321.81	652983.1	-6.908434e-05
0	0.6300721	0.6300709	-6.5070574e-11	0.049214657	0.049214657	0	80800.45	80800.3	-6.25e-06	653089	229011.28	-2.7292577e-05	229012.05	653088	-7.676037e-05
0	0.62992305	0.6299219	-2.7004288e-10	0.049073208	0.04907321	0	80781.32	80781.18	-3.65625e-05	653196.4	228695.1	-0.0001825191	228695.89	653195.44	-0.00020810589
0	0.629778	0.6297768	-3.6114167e-10	0.048931766	0.048931774	0	80762.73	80762.58	-4.625e-05	653298.94	228389.5	-0.00027804312	228390.3	653298	-0.00020810589
0	0.62962973	0.62962854	-5.0755045e-10	0.04879036	0.04879036	0	80743.71	80743.555	-6.25e-05	653404.4	228076.4	-0.00042303494	228077.2	653403.44	-0.00026098525
0	0.62948114	0.62948	-3.4487405e-10	0.048648857	0.048648857	0	80724.67	80724.516	-4.1875e-05	653509.9	227763.02	-0.00022516375	227763.83	653509	-0.0002558679
0	0.62933344	0.62933224	-2.1798642e-10	0.04850761	0.04850761	0	80705.72	80705.57	-3e-05	653614.94	227451.14	-0.00018081332	227451.92	653614	-0.00017569595
0	0.62918484	0.6291836	-2.4076113e-10	0.048366148	0.048366148	0	80686.66	80686.51	-2.75e-05	653720.25	227137.67	-0.0002319869	227138.48	653719.4	-0.00013987445
0	0.6290361	0.62903494	-1.6918349e-10	0.048224546	0.04822455	0	80667.586	80667.44	-2.25e-05	653825.1	226824.56	-0.00021492904	226825.38	653824.25	1.705786e-05
0	0.628884	0.6288829	3.5788816e-11	0.048083294	0.048083294	0	80648.09	80647.94	6.875e-06	653933.3	226503.6	-8.017194e-05	226504.4	653932.44	0.00011940502
0	0.628734	0.6287328	-9.435233e-11	0.04794183	0.04794183	0	80628.85	80628.695	-7.5e-06	654038.94	226187.84	-0.00010917031	226188.64	654038.06	-3.070415e-05
0	0.6285856	0.6285844	-4.0343756e-10	0.047800392	0.047800392	0	80609.82	80609.66	-5.25e-05	654142.6	225876.45	-0.0003172762	225877.27	654141.7	-0.0002661026
0	0.6284347	0.62843347	-4.1645168e-10	0.04765895	0.047658946	0	80590.47	80590.305	-5.375e-05	654248.4	225559.47	-0.00049808953	225560.28	654247.4	-9.72298e-05
0	0.6282834	0.6282822	-2.3100054e-10	0.047517676	0.047517676	0	80571.06	80570.91	-2.625e-05	654354.1	225241.8	-0.00015010918	225242.62	654353.25	-0.00019275383
0	0.6281319	0.6281307	-5.628605e-10	0.04737623	0.047376227	0	80551.625	80551.48	-7.25e-05	654460.1	224923.69	-0.0004281523	224924.5	654459.2	-0.00040938865
0	0.6279794	0.62797815	-4.7176163e-10	0.047234632	0.047234632	0	80532.08	80531.92	-6.28125e-05	654566.44	224603.83	-0.00028657206	224604.67	654565.6	-0.00040938865
0	0.6278275	0.6278263	-4.685081e-10	0.047093365	0.047093365	0	80512.61	80512.445	-6.25e-05	654672.1	224285.64	-0.00039574236	224286.48	654671.2	-0.00026098525
0	0.6276745	0.6276732	-4.5874754e-10	0.046951856	0.046951856	0	80492.98	80492.81	-5.9375e-05	654778.56	223964.86	-0.00036162665	223965.69	654777.7	-0.0003036299
0	0.6275207	0.6275194	-8.784527e-11	0.046810478	0.046810478	0	80473.266	80473.1	-9.375e-06	654884.8	223643.31	-0.00012622817	223644.19	654883.9	8.52893e-06
0	0.6273672	0.62736595	-3.871699e-10	0.046669014	0.046669014	0	80453.57	80453.414	-5.125e-05	654991.3	223322	-0.00036844978	223322.86	654990.44	-0.00020810589
0	0.6272135	0.62721217	-2.5377522e-10	0.046527762	0.046527762	0	80433.85	80433.69	-3.125e-05	655097.8	223000.17	-0.00017740174	223001.06	655096.9	-0.00019104804
0	0.6270588	0.6270576	-4.197052e-10	0.04638618	0.04638618	0	80414.02	80413.86	-5.75e-05	655204.4	222677.1	-0.00038209607	222677.92	655203.56	-0.0002319869
0	0.62690365	0.6269024	-3.1233874e-10	0.04624471	0.04624471	0	80394.125	80393.96	-4e-05	655310.8	222353.5	-0.0002456332	222354.36	655309.9	-0.00018934224
0	0.6267484	0.62674713	-4.2621226e-10	0.046103448	0.04610345	0	80374.21	80374.05	-5.625e-05	655417.94	222028.94	-0.0003036299	222029.81	655417	-0.00033774565
0	0.6265913	0.62659013	-3.3836697e-10	0.045961928	0.045961928	0	80354.07	80353.92	-4e-05	655526.5	221700.47	-0.00020640012	221701.36	655525.7	-0.00028486626
0	0.6264346	0.6264333	-4.782687e-10	0.045820568	0.045820568	0	80333.97	80333.805	-5.875e-05	655633.75	221373.84	-0.0003172762	221374.72	655632.75	-0.00037015555
0	0.62628007	0.6262789	-1.9195819e-10	0.0456791	0.045679096	0	80314.164	80313.99	-2.15625e-05	655738.6	221052.73	-0.000112581874	221053.61	655737.6	-0.00016716703
0	0.6261231	0.6261218	-2.1473288e-10	0.04553763	0.04553762	0	80294.02	80293.86	-2.75e-05	655845.6	220725.83	-0.00022857533	220726.73	655844.6	-0.00011087609
0	0.6259657	0.62596434	-3.741558e-10	0.045396265	0.045396265	0	80273.836	80273.67	-4.625e-05	655952.3	220398.72	-0.0003275109	220399.61	655951.44	-0.00022686954
0	0.6258058	0.6258045	-3.7740933e-10	0.04525479	0.04525479	0	80253.336	80253.17	-4.8125e-05	656062.1	220065.2	-0.00029680677	220066.11	656061.1	-0.00025245635
0	0.6256497	0.6256484	-2.7004288e-10	0.04511347	0.04511347	0	80233.305	80233.14	-3.21875e-05	656167.1	219741.52	-0.00025927948	219742.4	656166.25	-0.00018081332
0	0.62548906	0.6254877	-1.8870466e-10	0.04497199	0.04497199	0	80212.72	80212.55	-2.25e-05	656276.75	219407	-0.0002319869	219407.92	656275.8	-5.970251e-05
0	0.6253301	0.62532866	-2.049723e-10	0.04483065	0.04483065	0	80192.32	80192.16	-2.875e-05	656384	219077.08	-0.00018422489	219077.98	656383.2	-0.00016034389
0	0.625172	0.62517077	-3.643952e-10	0.044689175	0.044689175	0	80172.07	80171.89	-4.125e-05	656489.6	218750.3	-0.0002899836	218751.23	656488.7	-0.0001953125
0	0.6250101	0.62500876	-3.8066286e-10	0.044547684	0.044547684	0	80151.3	80151.125	-4.65625e-05	656599.56	218413.72	-0.00020469433	218414.62	656598.5	-0.00030874726
0	0.6248498	0.6248485	-5.2707166e-10	0.04440636	0.04440635	0	80130.734	80130.57	-6.5e-05	656707.06	218081.72	-0.00038550765	218082.62	656706.2	-0.00037186136