# t (s)	mx ()	my ()	mz ()	B_extx (T)	B_exty (T)	B_extz (T)	m_fullx (A/m)	m_fully (A/m)	m_fullz (A/m)	m_full.region1x (A/m)	m_full.region1y (A/m)	m_full.region1z (A/m)	m_full.region2x (A/m)	m_full.region2y (A/m)	m_full.region2z (A/m)
0	0.655702	0.65570265	-1.285874e-10	0.070710704	0.070710704	0	118046.84	118046.96	-2.5407866e-05	627495.94	290487.62	-0.00011004781	290486.78	627496	-8.590456e-05
0	0.65561694	0.6556168	-2.6317246e-10	0.07056914	0.07056914	0	118031.54	118031.52	-4.6297584e-05	627580	290283.84	-0.00019962862	290283.75	627579.7	-0.0001322593
0	0.655528	0.6555278	-6.7806083e-10	0.07042789	0.07042789	0	118015.54	118015.484	-0.000118708434	627669.5	290069.78	-0.00039809328	290069.75	627669.06	-0.0005420751
0	0.65543836	0.6554381	-3.1770322e-11	0.0702864	0.0702864	0	117999.39	117999.34	-8.941318e-06	627759.56	289854.25	-1.0503407e-05	289854.22	627759.2	-2.1630833e-05
0	0.6553491	0.6553488	-2.8467367e-10	0.07014501	0.07014501	0	117983.31	117983.266	-5.1915013e-05	627848.7	289640.1	-0.00030653723	289640.1	627848.25	-7.53911e-05
0	0.6552579	0.65525764	-4.3238396e-10	0.07000352	0.07000352	0	117966.9	117966.85	-7.6851364e-05	627939.5	289421.56	-0.00035366407	289421.5	627939.06	-0.00025395755
0	0.6551676	0.6551674	-2.8989897e-10	0.069862254	0.069862254	0	117950.66	117950.6	-5.139873e-05	628029.9	289204.9	-0.0003208148	289204.88	628029.44	-6.929329e-05
0	0.6550782	0.65507793	-2.2719471e-10	0.0697207	0.0697207	0	117934.55	117934.49	-3.697032e-05	628118.7	288990.8	-0.00018819627	288990.78	628118.25	-0.00011613105
0	0.6549863	0.654986	-2.1879197e-10	0.06957923	0.06957923	0	117918.016	117917.95	-4.0349645e-05	628209.5	288771.38	-0.0001958387	288771.34	628209.1	-8.593034e-05
0	0.65489644	0.6548962	-4.204393e-10	0.06943795	0.06943795	0	117901.84	117901.78	-7.6068514e-05	628299.1	288555.9	-0.0002978123	288555.9	628298.75	-0.0002822506
0	0.6548043	0.654804	-3.2920847e-10	0.06929643	0.06929643	0	117885.234	117885.17	-5.8583257e-05	628389.94	288336.03	-0.00013298485	288336	628389.5	-0.00032803437
0	0.6547133	0.6547131	-1.414251e-10	0.06915509	0.06915509	0	117868.84	117868.8	-2.7993396e-05	628480.8	288117.88	-0.00021713258	288117.84	628480.3	5.8332307e-06
0	0.6546219	0.65462166	-2.3016922e-10	0.0690136	0.0690136	0	117852.41	117852.336	-4.0955267e-05	628571	287899.6	-0.00016224581	287899.62	628570.6	-0.00013708718
0	0.6545298	0.65452945	-2.769126e-10	0.068872124	0.068872124	0	117835.805	117835.76	-5.053485e-05	628661.75	287679.9	-0.00017150694	287679.9	628661.4	-0.00019154446
0	0.65443814	0.6544378	-2.609904e-10	0.06873078	0.06873078	0	117819.32	117819.266	-4.4421282e-05	628752.1	287461.22	-0.00016171402	287461.22	628751.75	-0.0001888639
0	0.6543456	0.65434533	-1.6921657e-11	0.06858929	0.06858929	0	117802.66	117802.61	-1.0256954e-06	628842.8	287241.06	-4.0747647e-05	287241.06	628842.44	3.170521e-05
0	0.6542528	0.65425265	-3.1341474e-10	0.06844799	0.06844799	0	117785.984	117785.92	-5.7193014e-05	628933.94	287020.06	-0.00017179588	287020.1	628933.7	-0.00026251137
0	0.65416044	0.6541602	-5.3253624e-10	0.0683065	0.0683065	0	117769.32	117769.266	-9.473945e-05	629024.56	286800.12	-0.00044182356	286800.12	629024.2	-0.00029018248
0	0.65406686	0.65406656	-1.2945532e-10	0.06816516	0.06816516	0	117752.46	117752.414	-2.506681e-05	629116	286577.6	-0.00013114206	286577.6	629115.56	-4.118164e-05
0	0.65397453	0.6539742	-5.0614735e-11	0.068023674	0.068023674	0	117735.84	117735.78	-7.336512e-06	629206.7	286357.5	-1.9674138e-05	286357.5	629206.3	-3.1093317e-05
0	0.65388125	0.6538809	-2.1524256e-10	0.067882195	0.067882195	0	117719.07	117719.01	-4.2746862e-05	629297.75	286136.03	-7.7634795e-05	286136.03	629297.3	-0.00021707053
0	0.6537869	0.65378666	-3.7903503e-10	0.067740865	0.067740865	0	117702.07	117702.016	-6.320781e-05	629389.5	285912.16	-0.0002550774	285912.16	629389.1	-0.00023265826
0	0.65369356	0.65369326	-2.9934935e-10	0.06759933	0.06759933	0	117685.266	117685.21	-5.672872e-05	629480.56	285690.4	-0.0002551051	285690.4	629480.1	-0.00019213452
0	0.65359926	0.65359896	-2.6411732e-11	0.06745806	0.06745806	0	117668.3	117668.26	-2.7406736e-06	629572.1	285466.97	-0.0001193767	285466.94	629571.6	0.00012485086
0	0.6535057	0.65350544	-2.266197e-10	0.06731656	0.06731656	0	117651.45	117651.39	-4.407652e-05	629663.06	285244.94	-0.00015574481	285244.9	629662.6	-0.00016156973
0	0.6534107	0.65341026	-1.0693467e-10	0.06717502	0.06717502	0	117634.32	117634.27	-2.1484482e-05	629754.4	285020.38	-2.0329804e-05	285020.38	629754	-0.00014698713
0	0.6533159	0.6533156	-4.8840326e-10	0.06703376	0.06703376	0	117617.266	117617.22	-8.374395e-05	629846.8	284795.53	-0.0003590476	284795.5	629846.4	-0.00032342397
0	0.6532208	0.6532206	-1.8911751e-10	0.066892266	0.066892266	0	117600.14	117600.09	-3.570476e-05	629938.8	284570.4	-0.00011991377	284570.4	629938.3	-0.00015721904
0	0.6531256	0.6531254	-3.787801e-10	0.06675089	0.06675089	0	117583.04	117582.98	-6.989761e-05	630030.56	284345.38	-0.00043566606	284345.38	630030.2	-0.00010520635
0	0.6530307	0.6530304	-2.0522908e-10	0.066609405	0.066609405	0	117565.94	117565.88	-3.621691e-05	630121.94	284121.06	-0.00018421726	284121.06	630121.5	-7.3589035e-05
0	0.65293497	0.6529347	-4.8566495e-10	0.066468135	0.066468135	0	117548.695	117548.64	-8.706153e-05	630213.9	283895.03	-0.00032720884	283895	630213.44	-0.00034704822
0	0.6528391	0.65283877	-4.1969292e-10	0.066326596	0.066326596	0	117531.44	117531.38	-7.8481185e-05	630305.75	283668.9	-0.00031289092	283668.97	630305.4	-0.00028878226
0	0.65274274	0.65274245	-5.579632e-10	0.06618511	0.06618511	0	117514.09	117514.05	-0.00010577759	630397.75	283442.22	-0.00038712495	283442.22	630397.25	-0.0004168669
0	0.65264654	0.65264624	-1.5997736e-10	0.06604383	0.06604383	0	117496.78	117496.72	-2.8647664e-05	630490.2	283215.03	-0.00018614763	283215.06	630489.7	-3.3683737e-05
0	0.65254796	0.65254766	-3.0346772e-10	0.06590228	0.06590228	0	117479.03	117478.97	-5.3021588e-05	630584.75	282982.53	-0.0002111814	282982.53	630584.3	-0.00020273485
0	0.6524529	0.6524525	-3.0854458e-10	0.065760985	0.065760985	0	117461.91	117461.83	-5.2065385e-05	630675.44	282758.56	-0.0002675847	282758.56	630674.94	-0.00013398431
0	0.6523557	0.6523554	-4.3708426e-10	0.065619476	0.065619476	0	117444.414	117444.35	-7.58417e-05	630767.9	282530.06	-0.00026912638	282530.06	630767.44	-0.00033033523
0	0.6522593	0.652259	-1.4629468e-10	0.065478206	0.065478206	0	117427.055	117427	-2.7621241e-05	630859.75	282303.22	-0.00019545032	282303.25	630859.25	-2.2050488e-05
0	0.6521612	0.6521608	-2.8122366e-11	0.065336674	0.065336674	0	117409.38	117409.33	-8.914746e-06	630952.7	282072.9	-4.90896e-05	282072.9	630952.4	1.759758e-05
0	0.65206355	0.65206325	-3.5802208e-10	0.06519518	0.06519518	0	117391.81	117391.76	-6.224416e-05	631045.44	281843.6	-0.00021810079	281843.6	631044.94	-0.00029701914
0	0.65196544	0.6519651	-8.3715895e-11	0.0650539	0.0650539	0	117374.16	117374.086	-1.6226148e-05	631138.1	281613.5	-1.008641e-05	281613.5	631137.7	-7.0929076e-05
0	0.65186673	0.6518664	-4.024229e-10	0.06491235	0.06491235	0	117356.38	117356.32	-7.1200004e-05	631231.9	281381.56	-0.00031406342	281381.53	631231.44	-0.00025703787
0	0.65176815	0.65176773	-2.4284708e-10	0.064771056	0.064771056	0	117338.625	117338.57	-4.3550477e-05	631324.25	281151.1	-0.00024333876	281151.12	631323.9	-0.000104014056
0	0.65167004	0.6516696	-6.6832356e-10	0.06462957	0.06462957	0	117320.98	117320.91	-0.0001242916	631417.3	280920.78	-0.000494247	280920.78	631416.8	-0.00050420256
0	0.651571	0.65157056	-5.868729e-10	0.064488046	0.064488046	0	117303.12	117303.07	-0.00010414237	631510	280689.28	-0.000413984	280689.28	631509.56	-0.00040506598
0	0.6514699	0.6514696	-1.6324896e-10	0.06434676	0.06434676	0	117284.93	117284.875	-2.9024015e-05	631605.7	280452.12	-0.0001764981	280452.2	631605.2	-3.3935004e-05
0	0.6513727	0.65137225	-1.2370216e-10	0.06420526	0.06420526	0	117267.44	117267.37	-2.2129074e-05	631696.5	280225.12	-0.00010620923	280225.16	631696.1	-5.8492984e-05
0	0.651272	0.65127164	-5.179694e-10	0.06406394	0.06406394	0	117249.31	117249.266	-9.456867e-05	631790.3	279990.62	-0.000368707	279990.62	631789.8	-0.00036300943
0	0.6511729	0.6511725	-5.060781e-10	0.06392242	0.06392242	0	117231.46	117231.414	-9.214133e-05	631883.4	279758.56	-0.0005202908	279758.56	631883	-0.00019237396
0	0.65107185	0.6510715	-2.3543878e-10	0.063781135	0.063781135	0	117213.266	117213.2	-4.399199e-05	631977.5	279522.97	-0.00014247552	279522.97	631977.06	-0.00017428526
0	0.65097195	0.6509716	-3.9929068e-10	0.06363964	0.06363964	0	117195.29	117195.25	-7.282877e-05	632071.2	279289.5	-0.00021849261	279289.53	632070.75	-0.00034601433
0	0.65087193	0.6508716	-4.6161636e-10	0.06349811	0.06349811	0	117177.28	117177.22	-8.060158e-05	632164.44	279056.22	-0.0003226684	279056.28	632163.94	-0.00030543777
0	0.6507684	0.6507681	-4.5244955e-10	0.06335685	0.06335685	0	117158.65	117158.586	-8.1509876e-05	632260.9	278814.8	-0.00035342382	278814.8	632260.44	-0.00027001312
0	0.65066946	0.65066904	-3.31602e-10	0.06321528	0.06321528	0	117140.83	117140.766	-6.091218e-05	632352.25	278584.88	-0.00038467275	278584.9	632351.9	-7.679641e-05
0	0.65056777	0.6505674	-2.3385235e-10	0.063074	0.063074	0	117122.53	117122.47	-4.087948e-05	632446.8	278348.1	-5.4563254e-05	278348.16	632446.3	-0.00023025722
0	0.650466	0.6504656	-3.9132764e-10	0.0629325	0.0629325	0	117104.2	117104.14	-7.158656e-05	632540.7	278111.7	-0.00028242383	278111.7	632540.3	-0.00025872176
0	0.6503647	0.65036434	-2.026769e-10	0.06279099	0.06279099	0	117085.97	117085.91	-3.7149894e-05	632634.56	277876.06	-0.00011882386	277876.06	632634.06	-0.00013014536
0	0.6502612	0.6502608	-3.1507796e-10	0.06264971	0.06264971	0	117067.34	117067.266	-5.5594643e-05	632729.44	277636.22	-0.00010706318	277636.25	632729	-0.00032285438
0	0.6501578	0.65015745	-4.784564e-10	0.0625082	0.0625082	0	117048.71	117048.66	-8.524067e-05	632824	277396.9	-0.00052160415	277396.97	632823.5	-0.00014721118
0	0.65005744	0.6500571	-2.4865143e-10	0.062366873	0.062366873	0	117030.66	117030.59	-4.2522235e-05	632917.5	277163	-0.00015562568	277163.03	632917	-0.00014865823
0	0.6499536	0.6499533	-3.0362696e-10	0.062225346	0.062225346	0	117011.97	117011.91	-5.7437413e-05	633012.44	276922.62	-0.00021324078	276922.7	633012	-0.0002319237
0	0.64985114	0.6498507	-3.9842046e-10	0.062084075	0.062084075	0	116993.51	116993.44	-7.505611e-05	633106.44	276685.06	-8.383043e-05	276685.16	633105.94	-0.0004833649
0	0.6497458	0.6497454	-4.7256593e-10	0.06194257	0.06194257	0	116974.55	116974.48	-8.6591994e-05	633203.25	276440.72	-0.0004104565	276440.78	633202.9	-0.00024858
0	0.64964426	0.64964384	-2.8995226e-10	0.061801057	0.061801057	0	116956.26	116956.195	-5.180792e-05	633295.9	276206.06	-0.00016152493	276206.1	633295.44	-0.00021638618
0	0.64953816	0.6495378	-4.1616355e-10	0.061659787	0.061659787	0	116937.17	116937.1	-7.7506076e-05	633393	275960.4	-0.0002611707	275960.44	633392.44	-0.00033379064
0	0.64943516	0.64943486	-2.0030018e-10	0.061518222	0.061518222	0	116918.64	116918.586	-3.5217174e-05	633486.7	275722.6	-0.00015710272	275722.62	633486.2	-0.00012096315
0	0.64933145	0.64933115	-3.7870126e-10	0.061376926	0.061376926	0	116899.945	116899.88	-6.7747176e-05	633581	275483.03	-0.00027751323	275483.06	633580.5	-0.0002456414
0	0.64922506	0.6492247	-1.7459265e-10	0.061235435	0.061235435	0	116880.8	116880.72	-2.957192e-05	633677.8	275237.25	-5.6526096e-05	275237.28	633677.25	-0.00017727754
0	0.6491215	0.64912117	-2.368224e-10	0.06109393	0.06109393	0	116862.15	116862.08	-4.240953e-05	633771.4	274998.72	-0.00012279245	274998.75	633770.9	-0.00020106207
0	0.6490166	0.64901614	-1.2442411e-10	0.06095266	0.06095266	0	116843.266	116843.2	-2.7195269e-05	633866.44	274756.75	-3.1095577e-05	274756.8	633865.94	-0.00015283393
0	0.6489089	0.6489085	-4.687742e-10	0.060811136	0.060811136	0	116823.89	116823.805	-8.8691195e-05	633963.94	274508.53	-0.00043383808	274508.6	633963.4	-0.0002561565
0	0.64880544	0.6488051	-4.201559e-10	0.060669802	0.060669802	0	116805.26	116805.2	-7.5964876e-05	634056.9	274270.72	-0.00024100332	274270.78	634056.4	-0.00035065878
0	0.64869696	0.64869666	-1.203006e-10	0.060528312	0.060528312	0	116785.73	116785.664	-1.9460642e-05	634154.94	274020.78	-0.00013038765	274020.84	634154.4	-1.3048231e-05
0	0.6485928	0.6485925	-1.635117e-10	0.060387015	0.060387015	0	116766.99	116766.914	-3.112561e-05	634248.3	273781.7	-8.077755e-05	273781.72	634247.8	-0.000136245
0	0.6484859	0.6484855	-4.618174e-10	0.06024551	0.06024551	0	116747.73	116747.65	-8.513608e-05	634344	273536.22	-0.0003346467	273536.25	634343.56	-0.00033234045
0	0.6483798	0.6483795	-1.7471952e-10	0.06010401	0.06010401	0	116728.64	116728.56	-2.9716011e-05	634439.4	273292.34	-4.5540048e-05	273292.4	634438.9	-0.00017988436
0	0.6482727	0.6482723	-5.4623595e-10	0.059962716	0.059962716	0	116709.336	116709.27	-9.6201846e-05	634534.9	273046.8	-0.00031855903	273046.88	634534.4	-0.0004545723
0	0.648163	0.6481626	-1.6846348e-10	0.059821162	0.059821162	0	116689.6	116689.54	-3.3930308e-05	634633.7	272794.56	-0.0001259421	272794.62	634633.1	-0.00010809348
0	0.64805776	0.64805734	-3.5485623e-10	0.059679877	0.059679877	0	116670.65	116670.56	-6.368277e-05	634727.3	272553.38	-0.00012491041	272553.47	634726.8	-0.00038115206
0	0.64794964	0.6479492	-1.7380175e-10	0.059538364	0.059538364	0	116651.19	116651.1	-2.8831611e-05	634823.25	272306.12	-5.798941e-05	272306.2	634822.75	-0.00016821847
0	0.6478407	0.64784026	-4.656756e-10	0.059396874	0.059396874	0	116631.58	116631.51	-8.395963e-05	634919.75	272057.22	-0.00036189813	272057.25	634919.25	-0.0002812109
0	0.6477331	0.6477327	-5.174753e-10	0.05925559	0.05925559	0	116612.195	116612.11	-9.22024e-05	635015.9	271810.4	-0.00036658603	271810.47	635015.4	-0.00034648008
0	0.6476236	0.64762324	-2.4794092e-10	0.05911408	0.05911408	0	116592.51	116592.43	-4.5641147e-05	635112.3	271560.7	-0.00024248826	271560.75	635111.9	-0.0001011418
0	0.6475151	0.64751464	9.312636e-11	0.05897274	0.05897274	0	116572.945	116572.88	1.618946e-05	635208.7	271312.4	1.2136665e-05	271312.5	635208.1	9.8162534e-05
0	0.6474058	0.6474054	-3.7985257e-10	0.05883124	0.05883124	0	116553.3	116553.2	-6.5933964e-05	635305	271063.12	-0.00031062725	271063.22	635304.5	-0.00020701445
0	0.647296	0.6472956	-5.259468e-10	0.05868994	0.05868994	0	116533.52	116533.44	-9.071389e-05	635401.75	270812.62	-0.0004702881	270812.66	635401.3	-0.00027636118
0	0.64718604	0.6471856	-3.6663228e-10	0.058548454	0.058548454	0	116513.71	116513.64	-6.222969e-05	635499.06	270561.47	-0.00020987481	270561.56	635498.44	-0.00026766612
0	0.64707744	0.6470771	-1.0884231e-10	0.058406953	0.058406953	0	116494.15	116494.09	-1.677345e-05	635594.94	270313.44	-4.7145615e-05	270313.53	635594.44	-8.046509e-05
0	0.6469665	0.64696616	-4.8358345e-10	0.05826566	0.05826566	0	116474.19	116474.12	-8.4579624e-05	635692.1	270060.94	-0.00033035234	270061.03	635691.7	-0.00034004677
0	0.64685506	0.6468547	-2.1678753e-10	0.05812409	0.05812409	0	116454.14	116454.05	-3.89763e-05	635789.56	269807.44	-0.0001890861	269807.5	635789.2	-9.512226e-05
0	0.64674515	0.6467447	-3.767523e-10	0.057982814	0.057982814	0	116434.336	116434.266	-6.789603e-05	635886	269557.12	-0.00022251166	269557.2	635885.5	-0.00031026648
0	0.64663273	0.6466324	-3.3953565e-10	0.05784131	0.05784131	0	116414.125	116414.05	-6.0941322e-05	635983.94	269301.9	-0.00029444107	269301.97	635983.44	-0.0001769466
0	0.6465226	0.64652216	-1.6749734e-10	0.057699807	0.057699807	0	116394.27	116394.195	-3.236159e-05	636080.7	269050.84	-0.00011820883	269050.9	636080.2	-9.37397e-05
0	0.64641094	0.6464104	-3.9585613e-10	0.05755853	0.05755853	0	116374.17	116374.08	-7.1095244e-05	636177.8	268797.44	-0.00038921967	268797.5	636177.25	-0.0001930125
0	0.6462983	0.64629793	-1.8509635e-10	0.057417024	0.057417024	0	116353.9	116353.805	-3.4723755e-05	636275.44	268542.12	9.777393e-06	268542.2	636274.8	-0.00025252858
0	0.6461865	0.64618605	-2.07623e-10	0.057275668	0.057275668	0	116333.76	116333.68	-3.469898e-05	636372.75	268288.25	-0.00025564546	268288.38	636372.2	-2.2914257e-05
0	0.6460737	0.6460733	-1.2211665e-10	0.05713418	0.05713418	0	116313.45	116313.375	-2.7735654e-05	636470.4	268032.7	-0.000130175	268032.8	636469.8	-4.1862044e-05
0	0.6459607	0.6459603	-1.6359461e-10	0.056992885	0.056992885	0	116293.12	116293.04	-3.0245576e-05	636567.9	267777	-0.00010399607	267777.12	636567.44	-0.00012830361
0	0.64584774	0.64584726	-1.5796522e-10	0.056851383	0.056851383	0	116272.77	116272.7	-3.0056684e-05	636665.44	267521.34	-0.00017699155	267521.47	636664.94	-4.9464496e-05
0	0.64573413	0.64573365	-2.7416572e-10	0.056709897	0.056709897	0	116252.33	116252.25	-4.499569e-05	636763.6	267264	-0.00017623843	267264.12	636763.1	-0.000158319
0	0.6456209	0.64562035	-2.0482623e-10	0.0565686	0.0565686	0	116231.92	116231.84	-3.557316e-05	636861.5	267007.56	-9.282076e-05	267007.7	636861	-0.00014515537
0	0.6455063	0.6455059	-3.8988832e-10	0.056427035	0.056427035	0	116211.305	116211.234	-6.942385e-05	636959.3	266749.44	-0.00034277223	266749.53	636958.9	-0.00019111182
0	0.64539	0.6453895	-2.0257238e-10	0.056285743	0.056285743	0	116190.37	116190.29	-3.626342e-05	637060.06	266485.94	-0.0001352526	266486.06	637059.56	-0.000142996
0	0.64527744	0.645277	-2.5315863e-10	0.05614425	0.05614425	0	116170.11	116170.04	-4.3113232e-05	637156.1	266232.25	-0.00015733851	266232.38	637155.56	-0.00018927494
0	0.6451631	0.64516264	-3.6285464e-10	0.05600275	0.05600275	0	116149.516	116149.42	-6.2574e-05	637253.7	265974.47	-0.00031130566	265974.56	637253.1	-0.00021253256
0	0.6450467	0.64504623	-4.382065e-10	0.05586146	0.05586146	0	116128.56	116128.48	-7.988798e-05	637352.5	265712.75	-0.00033732798	265712.84	637352.06	-0.00029736926
0	0.64493203	0.64493155	-1.9400118e-10	0.055719968	0.055719968	0	116107.92	116107.82	-3.2365602e-05	637451.1	265453.6	-8.079775e-05	265453.72	637450.56	-0.00017253553
0	0.64481676	0.6448163	-2.2684991e-10	0.055578675	0.055578675	0	116087.17	116087.086	-4.0567968e-05	637549.2	265194.2	-0.00019614797	265194.3	637548.6	-0.00010652219
0	0.6447004	0.6447	-1.2848493e-10	0.055437125	0.055437125	0	116066.21	116066.13	-2.6885717e-05	637648	264932.44	-0.00014487593	264932.56	637647.44	-4.601896e-05
0	0.6445838	0.64458334	-1.4187716e-10	0.05529581	0.05529581	0	116045.234	116045.15	-2.6973117e-05	637746.8	264670.34	-7.874212e-05	264670.44	637746.4	-0.00011441412
0	0.6444676	0.6444671	-4.954979e-10	0.055154327	0.055154327	0	116024.31	116024.21	-9.005621e-05	637845.6	264408.97	-0.00036137554	264409.06	637845.06	-0.00032368128
0	0.6443485	0.644348	-2.4883592e-10	0.055012826	0.055012826	0	116002.88	116002.8	-4.5373432e-05	637946.5	264141.34	-0.00024319193	264141.47	637945.94	-0.000109702356
0	0.64423317	0.6442327	-1.654574e-10	0.05487153	0.05487153	0	115982.09	115982.016	-2.688312e-05	638043.56	263882.72	8.979081e-06	263882.84	638043	-0.00021908591
0	0.64411575	0.64411527	-5.4915728e-11	0.054730047	0.054730047	0	115960.97	115960.88	-1.2461174e-05	638142.44	263619.62	-7.648798e-05	263619.72	638141.9	-4.479894e-06
0	0.6439976	0.6439971	-1.7152203e-10	0.054588683	0.054588683	0	115939.695	115939.6	-3.4492576e-05	638241.9	263354.56	-0.00017195438	263354.7	638241.4	-9.652074e-05
0	0.64388055	0.64388007	-1.3497387e-10	0.05444718	0.05444718	0	115918.62	115918.53	-2.4404771e-05	638340.1	263092.47	-0.00012619623	263092.6	638339.56	-3.7569265e-05
0	0.64376163	0.64376116	-2.1214848e-11	0.0543059	0.0543059	0	115897.234	115897.12	-7.38135e-06	638439.25	262826.97	-2.1782073e-05	262827.1	638438.7	9.649174e-06
0	0.6436423	0.64364177	-1.1313368e-10	0.054164402	0.054164402	0	115875.73	115875.63	-2.3805664e-05	638539.4	262559.66	-9.061056e-05	262559.8	638538.75	-7.3808944e-05
0	0.64352334	0.64352286	-1.2517216e-10	0.054022897	0.054022897	0	115854.31	115854.234	-2.309864e-05	638638.8	262293.8	-9.0538604e-05	262293.97	638638.25	-8.8039116e-05
0	0.64340496	0.6434044	-4.4728174e-10	0.053881615	0.053881615	0	115833	115832.914	-7.9890706e-05	638737.8	262028.97	-0.00027348637	262029.16	638737.2	-0.00035971677
0	0.64328414	0.64328367	-4.662786e-10	0.053740054	0.053740054	0	115811.25	115811.17	-8.564828e-05	638838.3	261759.34	-0.00022015307	261759.53	638837.7	-0.0004226061
0	0.6431644	0.6431639	-2.9195107e-10	0.05359875	0.05359875	0	115789.7	115789.6	-5.1173767e-05	638937.5	261492.58	-0.00028195186	261492.73	638937	-0.00010778375
0	0.6430445	0.643044	-2.645167e-10	0.053457268	0.053457268	0	115768.11	115768.016	-4.2906056e-05	639037.3	261224.77	-0.00014536447	261224.89	639036.8	-0.00019770543
0	0.64292336	0.6429228	-1.6293189e-11	0.05331579	0.05331579	0	115746.305	115746.195	-1.1330675e-06	639137.3	260955.3	-3.7525333e-05	260955.45	639136.7	5.4592e-05
0	0.6428028	0.64280224	-3.4074776e-10	0.05317447	0.05317447	0	115724.59	115724.48	-5.973803e-05	639237.8	260685.86	-0.00034562938	260686.02	639237.3	-0.00015012451
0	0.6426817	0.6426813	-3.556977e-10	0.053032987	0.053032987	0	115702.79	115702.71	-6.0786308e-05	639337.7	260416.69	-0.00024634728	260416.86	639337.1	-0.00023221367
0	0.64256066	0.6425601	-2.5181382e-10	0.052891623	0.052891623	0	115681.01	115680.92	-4.794693e-05	639437.3	260147.55	-0.00023164178	260147.73	639436.75	-0.000119372635
0	0.64243764	0.64243716	-3.1047553e-10	0.05275012	0.05275012	0	115658.85	115658.766	-5.434051e-05	639537.75	259874.77	-0.00017165129	259874.89	639537.2	-0.00023043947
0	0.64231557	0.642315	-3.0252048e-10	0.05260882	0.05260882	0	115636.88	115636.79	-5.1904193e-05	639638.4	259603.33	-0.0002062554	259603.52	639637.75	-0.00021469242
0	0.64219415	0.6421936	-2.7549096e-10	0.052467342	0.052467342	0	115615.01	115614.914	-4.9093258e-05	639738.7	259332.94	-0.00024124797	259333.06	639738.1	-0.00011718374
0	0.6420698	0.6420693	-4.392038e-10	0.05232584	0.05232584	0	115592.63	115592.53	-7.956381e-05	639841.1	259056.45	-0.00030275257	259056.62	639840.5	-0.0002906096
0	0.6419485	0.641948	-5.0841464e-10	0.052184545	0.052184545	0	115570.78	115570.69	-8.785997e-05	639939.4	258788.42	-0.00029767645	258788.61	639938.75	-0.00039689834
0	0.6418239	0.6418233	-4.940912e-10	0.052042995	0.052042995	0	115548.35	115548.26	-8.708854e-05	640040.7	258512.55	-0.00034184157	258512.72	640040.06	-0.0003510486
0	0.641701	0.6417005	-3.8585685e-10	0.051901676	0.051901676	0	115526.24	115526.14	-6.9436785e-05	640141.4	258239.98	-0.00033426637	258240.14	640140.75	-0.00021971614
0	0.64157706	0.6415765	-9.5717545e-11	0.051760197	0.051760197	0	115503.91	115503.805	-1.9729456e-05	640241.8	257965.86	-4.086182e-05	257966.05	640241.2	-0.000105073996
0	0.64145255	0.641452	-3.5930808e-10	0.051618718	0.051618718	0	115481.51	115481.39	-6.556013e-05	640342.7	257690.7	-0.00023544238	257690.88	640342.06	-0.00029676504
0	0.6413259	0.6413253	-1.2208146e-10	0.05147742	0.05147742	0	115458.7	115458.6	-2.6904263e-05	640446.44	257409.62	-0.0001653291	257409.8	640445.9	-2.617061e-05
0	0.6412035	0.64120287	-1.9644429e-10	0.05133593	0.05133593	0	115436.66	115436.555	-3.607102e-05	640544.94	257139.75	-5.909676e-05	257139.9	640544.4	-0.00022036245
0	0.64107716	0.64107656	-6.678068e-10	0.051194552	0.051194552	0	115413.92	115413.82	-0.00011911665	640646.7	256861.12	-0.00058066135	256861.31	640646	-0.00039412233
0	0.64095205	0.6409515	-5.0287313e-10	0.051053073	0.051053073	0	115391.39	115391.3	-9.3484276e-05	640748.06	256584.61	-0.00032213386	256584.8	640747.5	-0.0003803835
0	0.6408259	0.6408254	-4.0256143e-10	0.05091175	0.05091175	0	115368.7	115368.59	-6.967132e-05	640849.3	256306.81	-0.00020698077	256307	640848.7	-0.00036997645
0	0.64069945	0.6406989	-5.01196e-10	0.05077028	0.05077028	0	115345.92	115345.82	-9.249834e-05	640951.06	256028.03	-0.00033159927	256028.22	640950.44	-0.0003521636
0	0.64057297	0.6405724	-1.1488711e-11	0.050628807	0.050628807	0	115323.14	115323.055	-2.6398507e-06	641052.56	255749.45	2.0101177e-06	255749.62	641051.94	4.3436071e-07
0	0.6404442	0.6404437	-2.6158403e-10	0.050487485	0.050487485	0	115299.97	115299.875	-4.7519385e-05	641156.25	255465.45	-0.00016175715	255465.66	641155.6	-0.00019655703
0	0.640319	0.6403184	-2.7067662e-10	0.05034594	0.05034594	0	115277.43	115277.31	-4.654195e-05	641255.5	255190.88	-9.847152e-05	255191.06	641254.9	-0.00024649122
0	0.64019054	0.64018995	-5.003391e-10	0.050204627	0.050204627	0	115254.31	115254.195	-9.25657e-05	641357.7	254908.81	-0.00035022997	254909	641357.06	-0.00036173148
0	0.6400635	0.6400629	-3.7951445e-10	0.050063137	0.050063137	0	115231.42	115231.33	-7.101793e-05	641459.56	254629.17	-0.00027854316	254629.36	641458.94	-0.00028851395
0	0.6399346	0.63993406	-3.008537e-10	0.049921665	0.049921665	0	115208.24	115208.11	-5.5985667e-05	641561.44	254346.83	-0.00011910629	254347.03	641560.8	-0.0003075382
0	0.6398058	0.63980514	-4.50024e-10	0.04978036	0.04978036	0	115185.03	115184.93	-8.2096536e-05	641663.75	254064.23	-0.0003471676	254064.44	641663.06	-0.00027371044
0	0.6396773	0.6396767	-3.4974612e-10	0.049638864	0.049638864	0	115161.9	115161.79	-6.639137e-05	641765.7	253782.27	-0.0003419357	253782.47	641765.06	-0.00016085843
0	0.6395459	0.6395453	-2.85252e-10	0.049497493	0.049497493	0	115138.24	115138.13	-5.0136856e-05	641870.7	253493.38	-0.00019716278	253493.53	641870.06	-0.00019712147
0	0.63941914	0.6394185	-4.5252133e-10	0.049356014	0.049356014	0	115115.414	115115.3	-7.981558e-05	641970.1	253216.34	-0.00033007254	253216.55	641969.44	-0.000288949
0	0.63928777	0.63928723	-5.7247573e-10	0.049214687	0.049214687	0	115091.8	115091.68	-0.000105164516	642073.2	252929.61	-0.0005528973	252929.8	642072.5	-0.00027990382
0	0.63915825	0.6391576	-2.3918423e-10	0.049073216	0.049073216	0	115068.45	115068.35	-4.411264e-05	642175.7	252645.66	-0.00015408309	252645.88	642175.06	-0.0001731185
0	0.6390271	0.63902646	-8.194093e-10	0.04893174	0.04893174	0	115044.84	115044.734	-0.00014884895	642278.2	252359.58	-0.00047626934	252359.81	642277.56	-0.0006715946
0	0.63889444	0.63889384	-2.4594504e-10	0.04879043	0.04879043	0	115020.945	115020.85	-4.4079185e-05	642383.44	252068.5	-0.00017637783	252068.73	642382.8	-0.0001611355
0	0.6387658	0.63876516	-7.322223e-11	0.048648868	0.048648868	0	114997.805	114997.695	-1.1028627e-05	642483.4	251788.52	-0.00011896189	251788.73	642482.75	2.9506113e-05
0	0.6386316	0.638631	-3.4266734e-10	0.048507564	0.048507564	0	114973.65	114973.54	-6.0118542e-05	642589.1	251494.95	-0.00023303382	251495.17	642588.5	-0.00021307352
0	0.63850135	0.63850075	-5.4244953e-10	0.04836608	0.04836608	0	114950.195	114950.08	-9.79166e-05	642690.1	251211.58	-0.00043987646	251211.78	642689.44	-0.00032199515
0	0.63836944	0.6383688	-5.124409e-10	0.048224606	0.048224606	0	114926.43	114926.33	-9.390692e-05	642792.56	250924.36	-0.00039787052	250924.6	642791.94	-0.00035103882
0	0.638236	0.63823533	-3.3002556e-10	0.04808329	0.04808329	0	114902.42	114902.305	-5.5811404e-05	642895.8	250634.31	-0.00029005785	250634.56	642895.2	-0.00015453898
0	0.6381032	0.63810253	-2.971121e-10	0.047941808	0.047941808	0	114878.51	114878.4	-5.511489e-05	642998.94	250345.25	-0.00017162756	250345.48	642998.3	-0.00026617083
0	0.6379692	0.63796854	-4.4896217e-10	0.047800418	0.047800418	0	114854.375	114854.27	-7.71675e-05	643102.9	250053.61	-0.00019882916	250053.83	643102.3	-0.00038135293
0	0.6378364	0.63783586	-2.2674987e-10	0.047658958	0.047658958	0	114830.48	114830.375	-4.0264276e-05	643205.9	249764.89	-0.00020524277	249765.16	643205.25	-8.770252e-05
0	0.6377012	0.6377006	-4.8440435e-10	0.047517624	0.047517624	0	114806.14	114806.02	-8.625619e-05	643310.06	249471.4	-0.00021265725	249471.66	643309.4	-0.00045442276
0	0.6375668	0.6375661	-4.3187412e-10	0.047376156	0.047376156	0	114781.945	114781.84	-7.962301e-05	643413.3	249179.95	-0.0004075254	249180.17	643412.6	-0.00022052656
0	0.6374325	0.6374319	-4.6206106e-10	0.047234684	0.047234684	0	114757.78	114757.66	-8.266496e-05	643516.5	248888.8	-0.00040635373	248889.05	643515.9	-0.00024561648
0	0.6372972	0.6372965	-3.7626097e-10	0.047093358	0.047093358	0	114733.4	114733.3	-6.835447e-05	643620.5	248595.28	-0.0002647299	248595.52	643619.8	-0.00025127386
0	0.63716143	0.6371607	-1.4489313e-10	0.04695181	0.04695181	0	114708.96	114708.84	-2.586366e-05	643724.56	248301.14	-5.0633553e-05	248301.38	643723.94	-0.00013705085
0	0.6370255	0.6370249	-2.1298165e-10	0.046810493	0.046810493	0	114684.484	114684.38	-4.133486e-05	643828.9	248006.62	-0.00019417716	248006.88	643828.2	-0.00011784073
0	0.6368878	0.63688713	-2.6443212e-10	0.046669014	0.046669014	0	114659.695	114659.586	-4.720614e-05	643935.2	247707.4	-0.00023061332	247707.69	643934.5	-0.00010165616
0	0.636751	0.63675046	-2.9562464e-10	0.046527706	0.046527706	0	114635.09	114634.98	-5.0967938e-05	644039.4	247411.84	-0.00022972016	247412.12	644038.75	-0.00016061687
0	0.636616	0.6366154	-3.348019e-11	0.046386234	0.046386234	0	114610.78	114610.67	-8.193774e-06	644141.25	247120.94	-0.00011076048	247121.19	644140.56	6.807785e-05
0	0.6364786	0.6364779	-3.7261833e-10	0.046244755	0.046244755	0	114586.03	114585.91	-6.828947e-05	644245.56	246824.1	-0.00016070125	246824.36	644244.94	-0.0003642623
0	0.6363404	0.6363398	-1.1919042e-10	0.046103433	0.046103433	0	114561.16	114561.05	-2.1814953e-05	644350.4	246525.88	-2.176494e-05	246526.11	644349.75	-0.0001410273
0	0.6362027	0.6362021	-2.1288542e-10	0.045961887	0.045961887	0	114536.37	114536.26	-3.8924896e-05	644454.7	246228.86	-0.00010371825	246229.11	644454	-0.00018012314
0	0.63606447	0.63606375	-4.6472295e-10	0.045820557	0.045820557	0	114511.47	114511.35	-8.352259e-05	644559.25	245930.77	-0.00028905243	245931.05	644558.56	-0.00036016334
0	0.63592494	0.63592416	2.0235341e-11	0.0456791	0.0456791	0	114486.34	114486.23	4.699827e-06	644664.1	245630.42	-1.5120822e-06	245630.72	644663.4	6.982388e-05
0	0.6357839	0.63578326	-2.5016827e-10	0.045537632	0.045537632	0	114460.97	114460.85	-4.2821503e-05	644771.5	245325.73	-0.00018379456	245326	644770.75	-0.00014278079
0	0.6356446	0.63564396	-3.9644482e-10	0.0453963	0.0453963	0	114435.88	114435.76	-7.37248e-05	644876.2	245025.92	-0.00036422518	245026.2	644875.56	-0.0002081183
0	0.6355047	0.63550407	-3.236086e-10	0.04525483	0.04525483	0	114410.7	114410.586	-5.91188e-05	644981.1	244725.08	-0.00020410899	244725.36	644980.5	-0.00021198564