# t (s)	mx ()	my ()	mz ()	B_extx (T)	B_exty (T)	B_extz (T)	m_fullx (A/m)	m_fully (A/m)	m_fullz (A/m)	m_full.region1x (A/m)	m_full.region1y (A/m)	m_full.region1z (A/m)	m_full.region2x (A/m)	m_full.region2y (A/m)	m_full.region2z (A/m)
0	0.644428	0.6444283	-2.3485525e-10	0.07071087	0.07071087	0	99602.8	99602.84	-3.6875e-05	633292.8	268906.7	-0.00033401267	268906.47	633292.94	5.661232e-06
0	0.6443339	0.6443338	-3.995239e-10	0.070569105	0.07056911	0	99588.25	99588.23	-6.40625e-05	633363.7	268703.78	-0.00029438405	268703.8	633363.5	-0.00033401267
0	0.6442351	0.6442348	-3.995239e-10	0.07042789	0.07042788	0	99572.97	99572.93	-5.78125e-05	633440.1	268488.84	-0.00023777173	268488.94	633439.8	-0.00030641418
0	0.6441364	0.64413613	-2.7534755e-10	0.07028652	0.07028653	0	99557.73	99557.664	-4.4375e-05	633516.7	268274.16	-0.00016700634	268274.28	633516.44	-0.00022078805
0	0.64403725	0.644037	-8.098457e-11	0.070144884	0.070144884	0	99542.4	99542.35	-1.375e-05	633592.44	268059.66	-6.793478e-05	268059.78	633592.2	-1.1322464e-05
0	0.64393777	0.64393747	-2.861455e-10	0.07000352	0.07000352	0	99527.02	99526.98	-4.625e-05	633668.44	267844.38	-0.00027740037	267844.47	633668.1	-0.00017195992
0	0.64383745	0.64383715	-2.9694344e-10	0.06986229	0.06986229	0	99511.51	99511.47	-4.40625e-05	633745.5	267626.75	-0.00025758604	267626.84	633745.2	-0.00018823596
0	0.6437388	0.64373857	-3.6443057e-10	0.069720544	0.069720544	0	99496.25	99496.23	-5.25e-05	633821.5	267412.66	-0.00024343297	267412.8	633821.25	-0.0002579399
0	0.6436388	0.6436385	-4.3191773e-11	0.069579184	0.06957919	0	99480.805	99480.76	-5.3125e-06	633897.94	267196.25	-2.2644928e-05	267196.34	633897.6	4.2459237e-06
0	0.64353883	0.6435385	-2.7264807e-10	0.069437966	0.069437966	0	99465.35	99465.32	-3.90625e-05	633974.2	266980.03	-0.00018115943	266980.12	633974	-0.00020946558
0	0.64343846	0.64343816	-1.4577223e-10	0.069296576	0.069296576	0	99449.84	99449.805	-2.375e-05	634050.6	266763.1	-0.00011605526	266763.22	634050.3	-7.925725e-05
0	0.64333826	0.6433381	-4.859074e-10	0.06915496	0.069154955	0	99434.375	99434.31	-7.5625e-05	634126.75	266546.75	-0.00033967392	266546.88	634126.5	-0.0003301206
0	0.64323723	0.64323694	-2.861455e-10	0.069013596	0.069013596	0	99418.734	99418.69	-4.375e-05	634203.44	266328.53	-0.00022644928	266328.66	634203.1	-0.00019955842
0	0.6431358	0.6431356	-4.4271567e-10	0.068872236	0.068872236	0	99403.07	99403.03	-7.0625e-05	634279.56	266110.5	-0.00029438405	266110.66	634279.25	-0.0003368433
0	0.6430354	0.6430351	-3.3203673e-10	0.06873064	0.06873064	0	99387.555	99387.51	-5.5e-05	634356.25	265893.25	-0.00021512681	265893.34	634355.9	-0.0002936764
0	0.6429334	0.6429332	-5.66892e-11	0.06858927	0.06858927	0	99371.79	99371.76	-6.25e-07	634432.75	265673.97	-2.830616e-05	265674.12	634432.56	-2.2644928e-05
0	0.6428319	0.6428316	-1.0797943e-10	0.068448015	0.068448015	0	99356.11	99356.055	-1.875e-05	634509.6	265454.97	-4.245924e-05	265455.06	634509.4	-0.00014825352
0	0.64273024	0.6427299	-1.7276709e-10	0.06830665	0.06830665	0	99340.38	99340.35	-2.25e-05	634586.25	265235.94	-0.00011322464	265236.03	634585.94	-0.0001521456
0	0.6426281	0.64262784	-3.617311e-10	0.06816504	0.06816504	0	99324.6	99324.57	-5.59375e-05	634663.06	265016.22	-0.0003000453	265016.3	634662.75	-0.00019248188
0	0.6425259	0.6425256	-1.6196915e-10	0.068023674	0.068023674	0	99308.81	99308.766	-2.125e-05	634739.7	264796.56	-4.812047e-05	264796.7	634739.4	-0.00016417573
0	0.64242357	0.64242333	-4.2381926e-10	0.06788232	0.06788232	0	99293	99292.94	-6.40625e-05	634816.2	264576.7	-0.00028306158	264576.84	634815.94	-0.00034533514
0	0.6423205	0.6423202	-2.267568e-10	0.067740716	0.067740716	0	99277.055	99277.016	-3.28125e-05	634892.8	264355.88	-0.0001585145	264356	634892.5	-0.00016983696
0	0.64221734	0.642217	-2.3755475e-10	0.06759932	0.06759932	0	99261.11	99261.07	-3.65625e-05	634969.44	264134.75	-0.000317029	264134.88	634969.1	-2.0521966e-05
0	0.6421146	0.64211434	-1.8356502e-10	0.06745809	0.06745809	0	99245.23	99245.19	-2.375e-05	635046.56	263913.75	-6.793478e-05	263913.9	635046.3	-0.00014294611
0	0.64201176	0.64201146	-3.6982956e-10	0.067316726	0.067316726	0	99229.336	99229.305	-5.75e-05	635123.2	263693.16	-0.0002660779	263693.28	635122.94	-0.0003000453
0	0.64190733	0.6419071	-2.5375166e-10	0.067174986	0.067174986	0	99213.2	99213.15	-4.125e-05	635200.06	263470.06	-0.00024626357	263470.16	635199.8	-0.00012914685
0	0.641804	0.6418038	-3.185393e-10	0.06703377	0.06703377	0	99197.234	99197.19	-5.375e-05	635277	263248.47	-0.00029438405	263248.6	635276.7	-0.00020663497
0	0.6417002	0.6416999	-2.807465e-10	0.066892385	0.066892385	0	99181.18	99181.125	-4.40625e-05	635354.06	263026.03	-0.0001754982	263026.16	635353.8	-0.00022644928
0	0.6415953	0.64159495	-3.6713005e-10	0.06675076	0.066750765	0	99164.96	99164.914	-5.625e-05	635431.2	262802.03	-0.00033118206	262802.16	635430.94	-0.00016983696
0	0.64149165	0.6414914	-1.9976194e-10	0.0666094	0.0666094	0	99148.95	99148.91	-3.1875e-05	635508.4	262579.88	-9.057971e-05	262580	635508.06	-0.00017903646
0	0.6413866	0.64138645	-1.0258046e-10	0.06646817	0.066468164	0	99132.73	99132.68	-1.34375e-05	635585.2	262356	-8.491848e-05	262356.12	635584.9	-9.057971e-05
0	0.6412821	0.6412817	-3.239383e-10	0.06632643	0.06632643	0	99116.555	99116.5	-5.0625e-05	635662.7	262132.02	-0.00022078805	262132.12	635662.5	-0.00027350825
0	0.64117706	0.64117676	-3.77928e-10	0.06618507	0.06618507	0	99100.32	99100.28	-5.75e-05	635739.94	261907.84	-0.00027173912	261907.98	635739.6	-0.00024626357
0	0.64107174	0.6410714	-3.4553418e-10	0.06604384	0.06604384	0	99084.03	99084	-5.34375e-05	635816.9	261683.34	-0.0003000453	261683.48	635816.6	-0.00021512681
0	0.64096636	0.6409661	-2.0516092e-10	0.065902434	0.065902434	0	99067.75	99067.72	-2.8125e-05	635894	261458.72	-0.0001585145	261458.86	635893.8	-0.00013303895
0	0.64085925	0.64085895	-4.751095e-10	0.06576085	0.06576085	0	99051.195	99051.15	-6.875e-05	635971.2	261231.62	-0.00038496376	261231.75	635970.9	-0.00029862998
0	0.64075464	0.64075434	-2.6994856e-10	0.06561948	0.065619476	0	99035.03	99034.99	-4.21875e-05	636048.44	261007.98	-0.0001953125	261008.11	636048.06	-0.00020380435
0	0.6406484	0.64064807	-1.7816605e-10	0.06547824	0.06547824	0	99018.61	99018.555	-2.5e-05	636126.06	260781.5	-0.00019248188	260781.64	636125.7	-4.7412817e-05
0	0.64054185	0.64054155	-2.807465e-10	0.06533652	0.065336525	0	99002.14	99002.1	-4.1875e-05	636203.5	260554.98	-0.00020380435	260555.12	636203.2	-0.00018115943
0	0.64043534	0.64043504	-3.590316e-10	0.06519514	0.06519514	0	98985.69	98985.65	-5.375e-05	636280.75	260328.62	-0.00033401267	260328.77	636280.4	-0.00022078805
0	0.6403281	0.6403278	-4.2381926e-10	0.065053925	0.065053925	0	98969.12	98969.055	-6.25e-05	636357.75	260101.47	-0.000317029	260101.66	636357.44	-0.00028518456
0	0.64022136	0.64022106	-4.130213e-10	0.064912505	0.06491251	0	98952.61	98952.56	-6.625e-05	636435.5	259874.25	-0.00039628622	259874.36	636435.1	-0.00019177423
0	0.64011425	0.64011395	-2.7534755e-10	0.06477093	0.06477093	0	98936.08	98936.016	-3.78125e-05	636512.75	259647.19	-0.00013586956	259647.33	636512.3	-0.00019814311
0	0.64000636	0.64000607	-2.1595886e-10	0.06462956	0.06462956	0	98919.38	98919.34	-3.625e-05	636590.44	259418.36	-7.925725e-05	259418.53	636590.1	-0.00019106657
0	0.63989866	0.6398983	-2.3755475e-10	0.06448818	0.06448818	0	98902.734	98902.695	-4.4375e-05	636668	259190.03	-0.0002490942	259190.14	636667.7	-0.00013268512
0	0.6397907	0.6397904	-3.563321e-10	0.0643466	0.0643466	0	98886.06	98886.01	-5.4375e-05	636745.56	258961.38	-0.00027173912	258961.5	636745.25	-0.00023211051
0	0.6396825	0.6396821	-4.1032183e-10	0.06420524	0.06420522	0	98869.32	98869.266	-6.8125e-05	636823	258732.27	-0.0004104393	258732.38	636822.75	-0.00023211051
0	0.63957393	0.6395736	-2.3485525e-10	0.064063966	0.064063966	0	98852.555	98852.49	-3.59375e-05	636900.94	258502.45	-0.00020380435	258502.58	636900.56	-0.00016346807
0	0.6394653	0.6394649	-2.2135783e-10	0.06392258	0.063922584	0	98835.75	98835.695	-3.375e-05	636978.6	258272.62	-0.0001754982	258272.77	636978.25	-0.00015285326
0	0.6393564	0.6393561	-2.7534755e-10	0.06378101	0.06378101	0	98818.92	98818.87	-4.25e-05	637056.2	258042.6	-0.0002660779	258042.73	637055.94	-7.8195764e-05
0	0.63924724	0.6392469	-4.2111978e-10	0.06363963	0.06363963	0	98802.055	98802	-6.0625e-05	637133.7	257812.27	-0.00027173912	257812.42	637133.4	-0.000317029
0	0.63913786	0.63913757	-1.6196915e-10	0.06349825	0.06349824	0	98785.13	98785.11	-2.40625e-05	637211.56	257581.36	1.1322464e-05	257581.52	637211.2	-0.00019814311
0	0.63902855	0.6390282	-1.0258046e-10	0.06335668	0.06335668	0	98768.25	98768.19	-2.1875e-05	637289.06	257350.67	-7.359601e-05	257350.84	637288.75	-8.704144e-05
0	0.63891816	0.6389178	-2.1325937e-10	0.06321527	0.06321527	0	98751.19	98751.14	-3.625e-05	637366.75	257118.55	-0.00020380435	257118.7	637366.4	-0.00011322464
0	0.6388087	0.63880837	-2.1055989e-10	0.06307404	0.06307404	0	98734.28	98734.21	-3.46875e-05	637444.56	256887.44	-0.00014719203	256887.58	637444.25	-0.00013586956
0	0.6386972	0.63869697	-4.0492285e-10	0.06293266	0.062932655	0	98717.06	98717	-6.125e-05	637522.94	256653.17	-0.000317029	256653.31	637522.6	-0.00026501642
0	0.6385875	0.6385871	-4.2651874e-10	0.062790945	0.062790945	0	98700.086	98700.03	-6.375e-05	637600.75	256421.64	-0.00032835145	256421.8	637600.4	-0.0002873075
0	0.6384765	0.63847613	-2.3755475e-10	0.062649705	0.062649705	0	98682.93	98682.87	-3.625e-05	637678.8	256188.16	-0.00024626357	256188.3	637678.44	-0.00013799252
0	0.6383658	0.63836545	-3.9412493e-10	0.06250833	0.06250833	0	98665.82	98665.766	-5.875e-05	637756.5	255955.44	-0.0002490942	255955.6	637756.2	-0.00027456976
0	0.6382548	0.6382544	-3.401352e-10	0.06236674	0.06236674	0	98648.66	98648.61	-5.0625e-05	637834.25	255722.27	-0.00022644928	255722.4	637833.94	-0.00024343297
0	0.63814217	0.63814175	-1.6196915e-10	0.062225346	0.062225346	0	98631.25	98631.195	-2.65625e-05	637912.25	255486.61	-0.00013870018	255486.77	637911.94	-0.000107563406
0	0.63803107	0.63803077	-3.77928e-10	0.06208412	0.06208412	0	98614.086	98614.02	-6.0625e-05	637990.7	255252.7	-0.0003000453	255252.84	637990.3	-0.00026041668
0	0.6379191	0.63791883	-3.3743572e-10	0.061942417	0.061942413	0	98596.78	98596.734	-5.0625e-05	638068.75	255017.92	-0.00028306158	255018.06	638068.4	-0.00022043422
0	0.6378069	0.6378066	-1.9166349e-10	0.061801024	0.06180102	0	98579.44	98579.4	-3.03125e-05	638146.56	254782.95	-0.00028872283	254783.12	638146.25	0
0	0.6376947	0.6376944	-1.2957531e-10	0.06165979	0.06165979	0	98562.1	98562.05	-1.84375e-05	638224.5	254547.92	-0.00014436142	254548.06	638224.25	-5.625849e-05
0	0.6375811	0.6375807	-3.563321e-10	0.061518367	0.061518367	0	98544.54	98544.484	-5.4375e-05	638303.2	254310.19	-0.00028306158	254310.36	638302.9	-0.00025510925
0	0.63746905	0.6374687	-4.2381926e-10	0.06137681	0.061376818	0	98527.21	98527.17	-6.6875e-05	638381.2	254075.44	-0.00036514946	254075.6	638380.7	-0.0002490942
0	0.63735545	0.6373551	-9.664158e-10	0.061235435	0.061235435	0	98509.65	98509.6	-0.000144375	638459.2	253838.22	-0.00038213315	253838.38	638458.75	-0.0009666553
0	0.6372423	0.63724196	-3.995239e-10	0.061094042	0.061094042	0	98492.16	98492.12	-6.46875e-05	638537.8	253601.3	-0.00030570652	253601.45	638537.5	-0.00033896626
0	0.6371284	0.63712806	-2.267568e-10	0.060952503	0.06095251	0	98474.586	98474.516	-3.09375e-05	638616.2	253363.5	-0.00019248188	253363.66	638615.9	-0.00013020834
0	0.63701487	0.63701457	-2.83446e-10	0.060811102	0.060811102	0	98457.01	98456.95	-4.46875e-05	638694.06	253126.61	-0.00026041668	253126.77	638693.75	-0.00017797497
0	0.6369001	0.6368998	-1.0258046e-10	0.06066984	0.06066984	0	98439.28	98439.24	-2e-05	638773.06	252887.03	-0.00010190217	252887.17	638772.7	-3.785949e-05
0	0.6367845	0.63678414	-3.4553418e-10	0.060528446	0.060528446	0	98421.414	98421.35	-5.21875e-05	638851.75	252646.4	-0.00036231885	252646.55	638851.5	-0.00014719203
0	0.6366713	0.6366709	-4.535136e-10	0.060386896	0.060386896	0	98403.914	98403.86	-6.375e-05	638929.56	252410.02	-0.00041326994	252410.16	638929.25	-0.0002490942
0	0.63655716	0.6365568	-2.267568e-10	0.060245506	0.060245506	0	98386.28	98386.23	-3.5e-05	639007.44	252172.42	-5.661232e-05	252172.61	639007.06	-0.00023423346
0	0.6364416	0.6364412	-4.6431153e-10	0.060104124	0.060104124	0	98368.4	98368.35	-7.1875e-05	639086.2	251931.83	-0.0003736413	251931.98	639085.75	-0.00032445934
0	0.63632566	0.63632524	-5.3989715e-11	0.05996258	0.059962578	0	98350.48	98350.43	-4.375e-06	639164.75	251690.92	-0.00019248188	251691.11	639164.44	7.678046e-05
0	0.63621056	0.63621026	-1.0797943e-11	0.059821147	0.059821147	0	98332.71	98332.664	-1.25e-06	639243.25	251451.5	-6.793478e-05	251451.66	639242.9	4.5289857e-05
0	0.63609487	0.6360945	-1.5657017e-10	0.059679918	0.059679918	0	98314.81	98314.766	-2.4375e-05	639321.8	251210.77	-7.925725e-05	251210.92	639321.44	-0.00014719203
0	0.6359787	0.63597834	-1.7816605e-10	0.05953851	0.05953851	0	98296.875	98296.81	-2.375e-05	639400.44	250969.5	-0.0001245471	250969.69	639400.1	-0.00010190217
0	0.6358625	0.6358622	-1.8356502e-10	0.059396826	0.059396826	0	98278.92	98278.85	-2.5625e-05	639478.8	250728.58	-6.793478e-05	250728.73	639478.44	-0.00018115943
0	0.6357455	0.6357451	-2.5375166e-10	0.059255596	0.059255596	0	98260.83	98260.766	-4.1875e-05	639557.75	250485.8	-0.00019814311	250485.95	639557.3	-0.00016842165
0	0.635629	0.63562864	-3.77928e-10	0.059114184	0.059114188	0	98242.83	98242.766	-5.0625e-05	639636.06	250244.38	-0.00019814311	250244.56	639635.7	-0.0003290591
0	0.6355118	0.6355114	-3.3473624e-10	0.058972627	0.058972627	0	98224.71	98224.65	-5.125e-05	639714.75	250001.67	-0.0002490942	250001.81	639714.4	-0.00022397249
0	0.6353945	0.63539404	-5.61493e-10	0.058831234	0.058831234	0	98206.586	98206.51	-8.28125e-05	639793	249759.1	-0.00047554346	249759.27	639792.7	-0.00033401267
0	0.63527644	0.6352761	-3.185393e-10	0.058689985	0.05868999	0	98188.33	98188.266	-5.125e-05	639872.06	249514.77	-0.00028872283	249514.92	639871.75	-0.0001754982
0	0.6351587	0.6351583	-1.6196915e-10	0.0585483	0.0585483	0	98170.13	98170.07	-2.71875e-05	639950.8	249271.19	-0.00021512681	249271.34	639950.5	-6.510417e-05
0	0.63504064	0.6350403	-1.2417635e-10	0.058406904	0.058406904	0	98151.875	98151.82	-2e-05	640029.56	249027.08	-2.5475543e-05	249027.25	640029.25	-0.0001585145
0	0.63492256	0.63492215	-2.83446e-10	0.058265664	0.058265664	0	98133.625	98133.58	-4.875e-05	640108.3	248783.08	-0.0001245471	248783.23	640107.94	-0.00027280062
0	0.63480335	0.63480306	-1.8356502e-10	0.05812423	0.05812423	0	98115.2	98115.16	-3.09375e-05	640187.6	248536.92	-0.00011322464	248537.1	640187.2	-0.00022184952
0	0.63468456	0.63468426	-2.9424393e-10	0.057982713	0.057982713	0	98096.85	98096.805	-4.03125e-05	640266.25	248292.03	-0.00013586956	248292.2	640265.94	-0.00026041668
0	0.63456565	0.63456523	-9.7181485e-11	0.05784131	0.057841305	0	98078.45	98078.39	-1.625e-05	640344.75	248046.94	9.9071556e-05	248047.12	640344.3	-0.00018399004
0	0.63444644	0.63444597	-2.3755475e-10	0.057699904	0.057699904	0	98060.03	98059.984	-3.78125e-05	640423.8	247800.97	-0.00029438405	247801.16	640423.5	-6.6873305e-05
0	0.63432664	0.6343262	-5.3989716e-12	0.057558388	0.057558395	0	98041.516	98041.45	-3.125e-07	640502.9	247554.19	4.812047e-05	247554.36	640502.56	-2.830616e-05
0	0.6342068	0.6342065	-4.157208e-10	0.057416987	0.057416987	0	98023.01	98022.945	-6.75e-05	640581.8	247307.5	-0.00023211051	247307.73	640581.5	-0.00042671536
0	0.6340864	0.63408595	-3.5093314e-10	0.05727571	0.05727571	0	98004.39	98004.336	-5.71875e-05	640661	247059.8	-0.00018115943	247059.98	640660.6	-0.00033224354
0	0.6339661	0.63396573	-2.4025423e-10	0.057134308	0.057134308	0	97985.805	97985.74	-3.84375e-05	640739.6	246812.83	-0.00022644928	246812.98	640739.25	-0.0001245471
0	0.6338454	0.63384503	-4.2111978e-10	0.05699279	0.05699279	0	97967.15	97967.086	-6.65625e-05	640818.8	246564.6	-0.00016417573	246564.75	640818.44	-0.00038956353
0	0.6337245	0.63372415	-2.7264807e-10	0.05685139	0.05685139	0	97948.47	97948.4	-4.21875e-05	640897.94	246316.25	-0.00018115943	246316.38	640897.5	-0.00022149569
0	0.6336034	0.633603	-2.1595886e-10	0.056709986	0.05670998	0	97929.734	97929.68	-3.21875e-05	640976.94	246067.6	-0.00013303895	246067.8	640976.6	-0.0001245471
0	0.6334819	0.63348156	-3.401352e-10	0.05656847	0.05656847	0	97910.97	97910.9	-5.375e-05	641055.94	245818.55	-0.00034816575	245818.73	641055.56	-0.00013586956
0	0.63336015	0.6333597	-3.7252904e-10	0.05642703	0.05642703	0	97892.15	97892.08	-6.46875e-05	641135	245568.97	-0.00027173912	245569.16	641134.6	-0.00029721466
0	0.63323796	0.6332376	-4.0492285e-10	0.056285787	0.056285787	0	97873.266	97873.2	-5.71875e-05	641214.44	245318.56	-0.00018682065	245318.75	641214.06	-0.00034533514
0	0.63311577	0.6331154	-2.0516092e-10	0.05614437	0.056144364	0	97854.38	97854.32	-3.5625e-05	641293.5	245068.5	-0.00029438405	245068.66	641293.06	-7.713428e-05
0	0.63299334	0.63299286	-3.3473624e-10	0.056002706	0.056002706	0	97835.44	97835.375	-5.46875e-05	641372.44	244817.97	-0.00023777173	244818.19	641372.1	-0.00027315444
0	0.6328701	0.63286966	-6.5327554e-10	0.05586147	0.055861466	0	97816.4	97816.34	-0.0001034375	641451.6	244566.33	-0.00040477808	244566.5	641451.25	-0.00055480073
0	0.6327473	0.6327469	-4.0492285e-10	0.05572005	0.05572005	0	97797.414	97797.36	-5.4375e-05	641531.2	244314.78	-0.00021512681	244314.97	641530.75	-0.00031525985
0	0.63262373	0.6326234	1.5657017e-10	0.05557856	0.05557856	0	97778.33	97778.26	2.375e-05	641609.94	244063.17	7.925725e-05	244063.34	641609.56	0.00014153079
0	0.63250047	0.6325	-3.1583983e-10	0.05543711	0.055437103	0	97759.27	97759.2	-5.1875e-05	641689.5	243810.83	-9.624094e-05	243811.06	641689.1	-0.00032835145
0	0.6323762	0.6323758	-1.2147686e-10	0.05529586	0.05529586	0	97740.07	97740	-2.125e-05	641768.94	243557.56	-0.00020946558	243557.75	641768.56	6.0150587e-06
0	0.63225174	0.6322513	-1.4577223e-10	0.055154447	0.055154454	0	97720.83	97720.77	-2.4375e-05	641848.56	243303.7	-1.6983695e-05	243303.89	641848.2	-0.00014719203
0	0.632128	0.6321276	-3.6713005e-10	0.05501279	0.05501279	0	97701.71	97701.66	-5.21875e-05	641927.7	243051.34	-0.00019248188	243051.5	641927.25	-0.00028872283
0	0.63200337	0.6320029	-6.370786e-10	0.054871544	0.054871544	0	97682.445	97682.37	-0.0001	642006.94	242797.6	-0.0004783741	242797.75	642006.56	-0.00041893116
0	0.6318784	0.631878	-3.8062747e-10	0.05473013	0.05473012	0	97663.12	97663.055	-6.21875e-05	642086.5	242543.1	-0.0002490942	242543.3	642086.06	-0.00031278306
0	0.63175327	0.63175285	-3.77928e-11	0.054588605	0.054588605	0	97643.79	97643.73	0	642165.8	242288.61	3.396739e-05	242288.81	642165.3	-3.785949e-05
0	0.63162804	0.6316277	-6.4787654e-11	0.05444719	0.05444718	0	97624.445	97624.38	-7.1875e-06	642244.9	242034.3	-7.925725e-05	242034.45	642244.44	-5.661232e-06
0	0.63150185	0.6315015	-2.5375166e-10	0.05430595	0.05430595	0	97604.94	97604.87	-3.90625e-05	642324.7	241777.72	-0.0001585145	241777.9	642324.3	-0.00020946558
0	0.63137597	0.6313756	-1.5387068e-10	0.054164287	0.05416429	0	97585.48	97585.42	-2.09375e-05	642404.06	241522.11	-0.00012171648	241522.31	642403.7	-0.00011322464
0	0.6312497	0.6312493	-2.483527e-10	0.05402286	0.05402286	0	97565.96	97565.89	-3.375e-05	642483.6	241265.77	-0.00022078805	241266	642483.25	-9.8363904e-05
0	0.63112295	0.6311226	-2.3755475e-10	0.053881623	0.053881623	0	97546.375	97546.305	-3.8125e-05	642563.25	241008.81	-0.00014719203	241009.02	642562.9	-0.00018965127
0	0.6309964	0.63099587	-1.2417635e-10	0.053740162	0.053740162	0	97526.8	97526.734	-1.8125e-05	642642.6	240752.1	-6.793478e-05	240752.33	642642.2	-0.00014719203
0	0.63086903	0.63086855	-1.0258046e-10	0.053598683	0.053598683	0	97507.125	97507.055	-1.625e-05	642722.44	240494.05	-6.227355e-05	240494.27	642721.9	-0.00013586956
0	0.6307416	0.6307411	-3.239383e-10	0.053457264	0.053457264	0	97487.43	97487.35	-4.90625e-05	642802	240236.06	-0.00027173912	240236.25	642801.5	-0.0001705446
0	0.6306139	0.6306135	-1.700676e-10	0.05331584	0.05331584	0	97467.69	97467.62	-2.625e-05	642881.4	239977.92	-0.00011039402	239978.11	642881	-0.00013020834
0	0.6304843	0.6304838	-7.018663e-11	0.053174376	0.053174376	0	97447.65	97447.586	-1.1875e-05	642961.7	239716.08	-0.00011322464	239716.3	642961.25	9.553329e-06
0	0.63035715	0.63035667	8.098457e-12	0.053032946	0.053032946	0	97428	97427.93	2.5e-06	643040.8	239458.97	-6.793478e-05	239459.16	643040.4	6.121207e-05
0	0.63022876	0.63022834	-1.8356502e-10	0.05289166	0.052891657	0	97408.164	97408.09	-3.09375e-05	643120.5	239199.53	-0.00021795742	239199.77	643120.2	-1.1322464e-05
0	0.6301005	0.6301001	-5.3989715e-11	0.052750226	0.052750226	0	97388.33	97388.26	-6.25e-06	643200	238940.36	-2.2644928e-05	238940.6	643199.6	-1.1322464e-05
0	0.6299717	0.6299712	-1.2417635e-10	0.052608766	0.052608766	0	97368.42	97368.35	-1.375e-05	643279.5	238680.58	-0.00016417573	238680.78	643279.06	-5.1304913e-05
0	0.6298418	0.6298414	-2.861455e-10	0.052467342	0.052467342	0	97348.35	97348.29	-3.8125e-05	643359.6	238418.78	-0.00025475543	238419.02	643359.2	-0.00013374661
0	0.629712	0.62971145	-1.6736812e-10	0.052325908	0.052325904	0	97328.27	97328.21	-2.625e-05	643439	238157.4	-7.359601e-05	238157.61	643438.6	-0.00017939029
0	0.629582	0.6295816	-2.5915062e-10	0.05218445	0.05218445	0	97308.19	97308.12	-3.875e-05	643518.8	237895.8	-0.00016983696	237896.02	643518.44	-0.0002437868
0	0.62945163	0.62945116	-1.0797943e-10	0.052042987	0.052042987	0	97288.05	97287.97	-1.84375e-05	643598.94	237633.19	-3.396739e-05	237633.38	643598.5	-0.00016417573
0	0.6293214	0.6293209	-3.4823366e-10	0.051901728	0.051901728	0	97267.91	97267.836	-5.5e-05	643678.7	237370.97	-0.00022644928	237371.17	643678.3	-0.00027775418
0	0.62919074	0.62919027	-6.7487144e-12	0.051760297	0.051760297	0	97247.71	97247.64	-1.875e-06	643758.6	237108.11	5.661232e-05	237108.36	643758.2	-9.0933536e-05
0	0.6290592	0.6290588	8.098457e-11	0.051618665	0.051618665	0	97227.4	97227.33	9.6875e-06	643837.94	236844.69	0.0001585145	236844.94	643837.56	-4.1220846e-05
0	0.6289279	0.6289274	-3.023424e-10	0.05147742	0.05147743	0	97207.09	97207.01	-4.8125e-05	643918.3	236580.42	-0.00012171648	236580.64	643917.94	-0.0002896074
0	0.62879616	0.62879574	-1.6736812e-10	0.051335983	0.051335983	0	97186.734	97186.664	-2.5625e-05	643998.5	236315.89	-0.00010190217	236316.12	643998.06	-0.00015055339
0	0.628665	0.6286646	-7.55856e-11	0.051194493	0.051194496	0	97166.47	97166.4	-1.09375e-05	644077.6	236053.23	-8.491848e-05	236053.47	644077.2	-1.7691349e-05
0	0.62853277	0.6285323	-2.7534755e-10	0.051053066	0.051053066	0	97146.02	97145.945	-4.40625e-05	644157.4	235788.22	-0.0001245471	235788.47	644156.94	-0.00029721466
0	0.6283999	0.62839943	-5.4529614e-10	0.050911807	0.05091181	0	97125.48	97125.414	-8.4375e-05	644237.56	235522.02	-0.0003509964	235522.25	644237.2	-0.00043591484
0	0.628267	0.6282665	-3.563321e-10	0.050770186	0.050770186	0	97104.96	97104.88	-5.90625e-05	644317.6	235255.98	-0.00016417573	235256.23	644317.1	-0.00036231885
0	0.6281343	0.6281338	-1.6196915e-10	0.050628755	0.050628755	0	97084.44	97084.35	-2.4375e-05	644397.4	234990.4	-0.00019248188	234990.61	644396.94	-3.2552085e-05
0	0.62800056	0.6280001	-2.5915062e-10	0.050487496	0.050487496	0	97063.766	97063.69	-4.28125e-05	644477.6	234722.83	-0.0002490942	234723.08	644477.25	-0.0001703677
0	0.62786686	0.62786645	3.2393827e-11	0.050346017	0.050346017	0	97043.11	97043.04	1.25e-06	644557.7	234455.77	5.661232e-06	234456	644557.2	2.2644928e-05
0	0.6277328	0.6277324	-1.88964e-10	0.050204586	0.05020459	0	97022.38	97022.31	-2.8125e-05	644637.6	234188.16	-8.77491e-05	234188.36	644637.2	-0.00018699757
0	0.6275984	0.627598	-1.8491478e-10	0.050063144	0.050063144	0	97001.62	97001.53	-2.90625e-05	644717.7	233919.89	-0.0001585145	233920.1	644717.2	-0.00012808538
0	0.6274643	0.6274638	-3.0774136e-10	0.049921695	0.049921695	0	96980.89	96980.805	-5.125e-05	644797.44	233652.36	-0.0002490942	233652.6	644797.06	-0.00020380435
0	0.62732905	0.6273286	-4.8590743e-11	0.049780272	0.04978028	0	96959.98	96959.91	-9.375e-06	644877.75	233382.66	-6.793478e-05	233382.89	644877.25	-3.1136777e-05
0	0.6271943	0.62719375	-3.185393e-10	0.049638826	0.049638826	0	96939.14	96939.06	-4.75e-05	644957.56	233114.14	-0.00018115943	233114.39	644957.1	-0.00024414062
0	0.6270586	0.62705827	-1.8356502e-10	0.049497534	0.04949753	0	96918.2	96918.12	-2.84375e-05	645037.75	232844.27	-0.00021795742	232844.5	645037.4	-6.793478e-05
0	0.62692237	0.62692183	-3.684798e-10	0.049356084	0.04935608	0	96897.125	96897.05	-5.5625e-05	645118	232573.12	-0.0003000453	232573.36	645117.5	-0.00023423346
0	0.62678623	0.62678576	-2.4970243e-10	0.049214657	0.049214657	0	96876.086	96876.01	-4e-05	645198.3	232302.19	-0.00018115943	232302.42	645197.94	-0.00019814311
0	0.6266494	0.6266489	-3.8872594e-10	0.049073208	0.04907321	0	96854.93	96854.86	-5.5625e-05	645278.3	232030.62	-0.00021795742	232030.9	645277.8	-0.0003276438
0	0.62651277	0.6265122	-2.2405731e-10	0.048931766	0.048931766	0	96833.81	96833.74	-3.5625e-05	645358.9	231758.75	-0.00017266757	231759	645358.44	-0.00012136266
0	0.62637633	0.6263758	-1.1877738e-10	0.04879036	0.04879036	0	96812.73	96812.65	-1.8125e-05	645438.8	231487.89	-0.0001245471	231488.1	645438.3	-2.335258e-05
0	0.62623847	0.626238	-3.590316e-10	0.048648857	0.048648857	0	96791.42	96791.34	-5e-05	645519.2	231214.45	-0.00028589222	231214.7	645518.7	-0.00022078805
0	0.6261017	0.6261012	-4.508141e-10	0.04850761	0.04850761	0	96770.27	96770.21	-7.34375e-05	645599	230943.19	-0.00032552084	230943.42	645598.5	-0.0003173828
0	0.6259639	0.62596345	-3.9142542e-10	0.048366148	0.048366144	0	96748.984	96748.914	-6e-05	645679.2	230670.1	-0.00036231885	230670.33	645678.7	-0.00018399004
0	0.6258248	0.62582433	-2.6185012e-10	0.04822455	0.04822455	0	96727.48	96727.4	-3.9375e-05	645759.7	230394.77	-0.00018682065	230395.03	645759.25	-0.00017868263
0	0.6256871	0.6256866	-5.0210436e-10	0.048083294	0.048083294	0	96706.19	96706.12	-8.09375e-05	645839.75	230121.88	-0.00043308423	230122.14	645839.3	-0.00033932007
0	0.62554854	0.625548	-5.102028e-10	0.04794183	0.04794183	0	96684.78	96684.71	-7.90625e-05	645919.75	229847.89	-0.00029438405	229848.16	645919.3	-0.00046422103
0	0.62540805	0.6254075	-1.6736812e-10	0.047800392	0.0478004	0	96663.06	96662.99	-2.84375e-05	646000.56	229570.4	-0.00018115943	229570.64	646000.1	-0.000114639945
0	0.62526965	0.6252692	-2.0516092e-10	0.047658946	0.047658946	0	96641.68	96641.59	-3.5e-05	646080.6	229296.66	-4.245924e-05	229296.9	646080.2	-0.00023918705
0	0.6251297	0.6251293	-2.807465e-10	0.047517676	0.047517676	0	96620.055	96619.984	-4e-05	646161.2	229020.3	-0.00022078805	229020.6	646160.6	-0.00019814311
0	0.62499017	0.6249896	-3.5498238e-10	0.047376227	0.04737622	0	96598.484	96598.41	-5.0625e-05	646241	228745.02	-0.00019248188	228745.28	646240.44	-0.0002950917
0	0.6248486	0.6248481	-3.2663777e-10	0.047234632	0.047234632	0	96576.6	96576.52	-5.03125e-05	646321.4	228466.45	-0.00021512681	228466.72	646320.94	-0.0002568784
0	0.62470895	0.6247085	-2.9964292e-10	0.04709337	0.047093365	0	96555.03	96554.945	-4.3125e-05	646401.7	228190.52	-0.0002490942	228190.8	646401.3	-0.00013233129
0	0.6245681	0.6245675	-2.1595886e-10	0.046951856	0.046951856	0	96533.25	96533.164	-3.09375e-05	646482.06	227912.95	-0.00032835145	227913.2	646481.6	1.1322464e-05
0	0.62442696	0.6244265	-2.3755475e-10	0.04681048	0.046810478	0	96511.44	96511.35	-3.9375e-05	646562.2	227635.34	-0.00020380435	227635.64	646561.7	-0.00016099129
0	0.624285	0.6242845	-5.102028e-10	0.046669014	0.046669014	0	96489.49	96489.414	-8e-05	646642.56	227356.17	-0.0004076087	227356.42	646642.06	-0.00035736526
0	0.6241432	0.6241426	-2.4700295e-10	0.046527762	0.046527762	0	96467.58	96467.484	-3.78125e-05	646722.94	227077.19	-0.00033401267	227077.45	646722.5	1.1322464e-05
0	0.62400067	0.6240002	-3.401352e-10	0.04638618	0.04638618	0	96445.54	96445.45	-5.78125e-05	646803.94	226796.8	-0.00029438405	226797.06	646803.5	-0.00023104902
0	0.6238586	0.6238581	-2.3755475e-10	0.04624471	0.04624471	0	96423.6	96423.51	-3.34375e-05	646883.94	226517.94	-0.00016417573	226518.22	646883.5	-0.00014153079
0	0.62371475	0.6237142	-4.0492285e-10	0.046103448	0.04610345	0	96401.36	96401.266	-6.125e-05	646964.1	226236.27	-0.00026041668	226236.52	646963.7	-0.00032835145
0	0.6235722	0.62357163	-2.2270757e-10	0.045961928	0.045961928	0	96379.31	96379.23	-3.40625e-05	647045	225955.73	-0.00012171648	225956.02	647044.5	-0.00016983696
0	0.6234291	0.6234286	-5.0210436e-10	0.045820568	0.04582056	0	96357.2	96357.12	-8.125e-05	647125.06	225675.44	-0.0004415761	225675.69	647124.7	-0.00032339786
0	0.62328476	0.6232842	-3.401352e-10	0.0456791	0.045679096	0	96334.9	96334.805	-4.8125e-05	647205.7	225392.67	-0.00027173912	225392.92	647205.25	-0.00023211051
0	0.62314105	0.6231405	-1.1067892e-10	0.04553762	0.04553762	0	96312.67	96312.586	-1.5e-05	647286	225111.05	-3.9628623e-05	225111.34	647285.56	-7.925725e-05
0	0.6229956	0.622995	-2.456532e-10	0.04539626	0.045396265	0	96290.2	96290.12	-3.78125e-05	647367.1	224826.48	-0.00027173912	224826.78	647366.56	-5.0951086e-05
0	0.6228513	0.6228508	-2.551014e-10	0.04525479	0.045254786	0	96267.9	96267.82	-4.03125e-05	647447.44	224544.14	-0.00014719203	224544.42	647446.94	-0.00024343297
0	0.6227062	0.62270564	-1.6196915e-10	0.04511347	0.045113478	0	96245.46	96245.38	-2.71875e-05	647527.6	224260.7	-0.000118885866	224260.97	647527.2	-0.00011676291
0	0.6225589	0.62255836	-2.267568e-10	0.044972	0.04497199	0	96222.71	96222.625	-3.6875e-05	647608.9	223973.23	-0.00011322464	223973.5	647608.44	-0.00022574162
0	0.62241495	0.62241435	1.6196914e-11	0.04483065	0.04483065	0	96200.46	96200.36	1.5625e-06	647688.9	223691.8	-1.1322464e-05	223692.11	647688.3	3.396739e-05
0	0.6222696	0.622269	-2.5105218e-10	0.044689175	0.044689175	0	96177.984	96177.9	-4.1875e-05	647768.9	223408.19	-5.0951086e-05	223408.48	647768.4	-0.00029792232
0	0.62212276	0.62212217	-2.5375166e-10	0.044547684	0.044547684	0	96155.29	96155.195	-4.09375e-05	647849.1	223122.45	-0.0001585145	223122.73	647848.6	-0.00020132755