//mumax 3.10 [windows_amd64 go1.11.6(gc) CUDA-11.0]
//GPU info: NVIDIA GeForce RTX 3090(24575MB), CUDA Driver 12.0, cc=8.6, using cc=80 PTX
//(c) Arne Vansteenkiste, Dynamat LAB, Ghent University, Belgium
//This is free software without any warranty. See license.txt
//********************************************************************//
//  If you use mumax in any work or publication,                      //
//  we kindly ask you to cite the references in references.bib        //
//********************************************************************//
//output directory: r1;p0.8;a3.2e-07;l2.3000000000000002e-07;s2.out/
randSeed(2)
ThermSeed(2)
resolution := 2e-09
zResolution := 5e-09
a := 3.2e-07
gridSize := 320
gridDepth := 5
SetCellsize(resolution, resolution, zResolution)
SetGridsize(gridSize, gridSize, gridDepth)
SetPBC(16, 16, 0)
//resizing...
Msat = 700e3
Aex = 13e-12
alpha = 0.2
Bmax := 0.1
Bstep := Bmax / 500.0
TableAdd(B_ext)
TableAdd(m_full)
islandWidth := 8e-08
islandLength := 2.3000000000000002e-07
ellipseConstant := 9.200000000000002e-08
hIsland := rect(islandLength-2*ellipseConstant, islandWidth)
hIsland = hIsland.add(ellipse(ellipseConstant*2, islandWidth).transl(islandLength/2-ellipseConstant, 0, 0))
hIsland = hIsland.add(ellipse(ellipseConstant*2, islandWidth).transl(-islandLength/2+ellipseConstant, 0, 0))
hIsland = hIsland.sub(rect(1e-08, -6.67724560723164e-09).transl(6.435366719148321e-08, -3.57312860581294e-08, 0))
hIsland = hIsland.add(rect(1e-08, 2.965891907553347e-09).transl(-3.041574272270032e-08, -3.9869842016655e-08, 0))
hIsland = hIsland.add(rect(1e-08, 9.154771548929543e-11).transl(-1.0051928553004743e-07, -2.1541538415323597e-08, 0))
hIsland = hIsland.add(rect(1e-08, 1.1115721740540619e-08).transl(7.143869337032548e-08, -3.4006818466128256e-08, 0))
hIsland = hIsland.add(rect(1e-08, 3.31232672739615e-09).transl(1.0669556592619922e-07, -1.660762712413711e-08, 0))
hIsland = hIsland.sub(rect(1e-08, -2.834634811057515e-09).transl(6.517785167057247e-08, -3.5548706777929506e-08, 0))
hIsland = hIsland.add(rect(1e-08, 2.1151218433800767e-09).transl(9.224168877281366e-08, -2.6337882094984454e-08, 0))
hIsland = hIsland.add(rect(1e-08, 4.3755865971190676e-09).transl(-1.1454500055677778e-07, -3.973277302861754e-09, 0))
hIsland = hIsland.add(rect(1e-08, 3.6818689460179363e-09).transl(-1.0716386334705818e-07, -1.615405575378378e-08, 0))
hIsland = hIsland.sub(rect(1e-08, -1.534798421663432e-09).transl(3.5351378601505576e-08, -3.963787749197076e-08, 0))
hIsland = hIsland.add(rect(1e-08, 2.607159292627762e-09).transl(1.7789582230004883e-08, -4e-08, 0))
hIsland = hIsland.sub(rect(1e-08, -3.565523680809236e-09).transl(1.0746958230352532e-08, -4e-08, 0))
hIsland = hIsland.sub(rect(1e-08, -4.532650205293553e-09).transl(7.718061093560453e-08, -3.2327662599080246e-08, 0))
hIsland = hIsland.sub(rect(1e-08, -5.417315471731809e-10).transl(-4.0235104462260193e-08, -3.9291819795838114e-08, 0))
hIsland = hIsland.add(rect(1e-08, 1.661712834943977e-09).transl(7.808126814355815e-08, -3.203865192754075e-08, 0))
hIsland = hIsland.sub(rect(1e-08, -8.738921464197555e-09).transl(-9.465612302093035e-08, -2.5087371082435967e-08, 0))
hIsland = hIsland.sub(rect(1e-08, -3.6151291778324317e-09).transl(2.3403722577986206e-08, -3.999961485655796e-08, 0))
hIsland = hIsland.sub(rect(1e-08, -5.463255632803783e-10).transl(-6.884302648366234e-09, -4e-08, 0))
hIsland = hIsland.add(rect(1e-08, 1.1651917756575043e-09).transl(3.306807244406103e-08, -3.9759755653356096e-08, 0))
hIsland = hIsland.add(rect(1e-08, 5.06534755688967e-10).transl(-5.439060046452776e-08, -3.759959729723513e-08, 0))
hIsland = hIsland.add(rect(1e-08, 5.108803050736048e-09).transl(-1.0491805441998915e-07, -1.8206089469462558e-08, 0))
hIsland = hIsland.sub(rect(1e-08, -3.2872371707375e-09).transl(-5.875292340912273e-08, -3.685594618160907e-08, 0))
hIsland = hIsland.add(rect(1e-08, 8.478853505257982e-10).transl(-1.1374814022005294e-07, -6.57622237160774e-09, 0))
hIsland = hIsland.sub(rect(1e-08, -7.337439357098801e-09).transl(-4.139036917357037e-08, -3.9192690383792355e-08, 0))
hIsland = hIsland.sub(rect(1e-08, -1.9256981134924965e-09).transl(-6.16245252944295e-08, -3.6304077181443616e-08, 0))
hIsland = hIsland.add(rect(1e-08, 2.778501520915311e-09).transl(-7.072907861482777e-08, -3.4195963277226004e-08, 0))
hIsland = hIsland.add(rect(1e-08, 1.1170829765757098e-10).transl(-4.136083745504522e-09, -4e-08, 0))
hIsland = hIsland.sub(rect(1e-08, -2.1199257645525133e-09).transl(1.043190316222838e-07, -1.8706847487318682e-08, 0))
hIsland = hIsland.add(rect(1e-08, 3.7261286113163505e-09).transl(-7.653384426976271e-08, -3.253071114819554e-08, 0))
hIsland = hIsland.sub(rect(1e-08, -1.9562089738079404e-09).transl(3.0230322872219714e-08, -3.987627943835337e-08, 0))
hIsland = hIsland.sub(rect(1e-08, -2.1397440754873247e-09).transl(9.330703816745898e-08, -2.5798845184950162e-08, 0))
hIsland = hIsland.add(rect(1e-08, 3.0922448840510706e-09).transl(-1.0223832454789886e-07, -2.0324810110287707e-08, 0))
hIsland = hIsland.sub(rect(1e-08, -1.1070530780097963e-09).transl(-3.9548936322837024e-08, -3.9347544333804325e-08, 0))
hIsland = hIsland.add(rect(1e-08, 2.216241887815177e-09).transl(2.48025304601655e-08, -3.999232176764389e-08, 0))
hIsland = hIsland.sub(rect(1e-08, -2.3336578400670987e-10).transl(1.0657057280351726e-07, -1.6726191279678412e-08, 0))
hIsland = hIsland.sub(rect(1e-08, -1.5334420978795224e-09).transl(-8.457455244330603e-08, -2.9720100990952113e-08, 0))
hIsland = hIsland.add(rect(1e-08, 2.106081833501788e-09).transl(9.130969450634019e-08, -2.6793989805330992e-08, 0))
hIsland = hIsland.add(rect(1e-08, 3.354731237463944e-09).transl(4.745265766848311e-08, -3.856124074627095e-08, 0))
hIsland = hIsland.add(rect(1e-08, 1.2536137396903562e-09).transl(-5.8692539537231014e-08, -3.68670082721425e-08, 0))
hIsland = hIsland.add(rect(1e-08, 4.129763025857659e-09).transl(3.02919422278148e-10, -4e-08, 0))
hIsland = hIsland.add(rect(1e-08, 6.931353706653288e-09).transl(-9.961042856037624e-08, -2.2147649560568464e-08, 0))
hIsland = hIsland.sub(rect(1e-08, -2.7772235973610717e-09).transl(8.35135629670096e-08, -3.012923862685518e-08, 0))
hIsland = hIsland.add(rect(1e-08, 1.4478378870619127e-09).transl(5.058292170675921e-08, -3.815990242573412e-08, 0))
hIsland = hIsland.add(rect(1e-08, 5.285339010861794e-09).transl(-2.7486112804820645e-08, -3.995241685850803e-08, 0))
hIsland = hIsland.sub(rect(1e-08, -6.4966209699782326e-09).transl(-9.776992231310347e-08, -2.3306370439857482e-08, 0))
hIsland = hIsland.sub(rect(1e-08, -6.8617690183779536e-09).transl(1.0325472786591145e-07, -1.955641664464433e-08, 0))
hIsland = hIsland.add(rect(1e-08, 2.1556679841982894e-09).transl(3.014903713098151e-08, -3.987904981324822e-08, 0))
hIsland = hIsland.add(rect(1e-08, 3.6109797500139068e-09).transl(-4.585888609722857e-08, -3.87456231478853e-08, 0))
hIsland = hIsland.sub(rect(1e-08, -6.325086980292776e-09).transl(-1.004686384369372e-07, -2.157595305500931e-08, 0))
hIsland = hIsland.add(rect(1e-08, 2.0627060258358197e-10).transl(-5.620951462046718e-08, -3.730305090142679e-08, 0))
hIsland = hIsland.add(rect(1e-08, 1.1016829934121152e-09).transl(2.989238400341736e-08, -3.98875902612886e-08, 0))
hIsland = hIsland.sub(rect(1e-08, -4.07433468387968e-09).transl(-6.860632528226554e-08, -3.473927489290362e-08, 0))
hIsland = hIsland.sub(rect(1e-08, -1.8446082393256972e-09).transl(-8.357197902437227e-09, -4e-08, 0))
hIsland = hIsland.sub(rect(1e-08, -8.912429712763911e-10).transl(-7.296371341125033e-09, -4e-08, 0))
hIsland = hIsland.sub(rect(1e-08, -1.4398575873795502e-09).transl(-6.8300976441706575e-09, -4e-08, 0))
hIsland = hIsland.sub(rect(1e-08, -3.1619443456886983e-09).transl(1.1003980064996077e-07, -1.2956763222254224e-08, 0))
hIsland = hIsland.add(rect(1e-08, 8.6201160655834e-10).transl(-6.62101151396588e-08, -3.531357223038462e-08, 0))
hIsland = hIsland.sub(rect(1e-08, -3.0036716840272048e-09).transl(3.373204985137981e-08, -3.9726910655667446e-08, 0))
hIsland = hIsland.sub(rect(1e-08, -5.796016318250637e-10).transl(7.143052996557006e-08, -3.4009016282698155e-08, 0))
hIsland = hIsland.sub(rect(1e-08, -1.7467590428401186e-09).transl(9.737765461021342e-08, -2.3542442446537795e-08, 0))
hIsland = hIsland.sub(rect(1e-08, -3.826482342395883e-09).transl(-8.163436885461727e-08, -3.0823636344059564e-08, 0))
hIsland = hIsland.add(rect(1e-08, 6.3331219429984814e-09).transl(3.4085314634727505e-08, -3.9708569257600454e-08, 0))
hIsland = hIsland.add(rect(1e-08, 8.054411880270731e-10).transl(5.177839595485519e-08, -3.799264660288111e-08, 0))
hIsland = hIsland.sub(rect(1e-08, -1.695491956071666e-10).transl(1.6555224285232095e-08, -4e-08, 0))
hIsland = hIsland.sub(rect(1e-08, -5.067187952749793e-10).transl(7.619815141031411e-08, -3.263464673602461e-08, 0))
hIsland = hIsland.add(rect(1e-08, 1.892724207700784e-09).transl(1.7762292655973493e-08, -4e-08, 0))
hIsland = hIsland.add(rect(1e-08, 8.970042026329351e-09).transl(1.0980678400585745e-07, -1.32489772088778e-08, 0))
hIsland = hIsland.sub(rect(1e-08, -9.31547754780874e-10).transl(-6.682636553656915e-08, -3.516971997325496e-08, 0))
hIsland = hIsland.sub(rect(1e-08, -1.1768670857818878e-08).transl(1.6246327726711593e-08, -4e-08, 0))
hIsland = hIsland.add(rect(1e-08, 5.160653228615363e-10).transl(8.121886161415983e-08, -3.0972163098868826e-08, 0))
hIsland = hIsland.add(rect(1e-08, 1.4515431381287025e-09).transl(-8.122389466904163e-08, -3.0970374555491544e-08, 0))
hIsland = hIsland.sub(rect(1e-08, -6.062226934424427e-09).transl(7.775768583605677e-08, -3.214333400505068e-08, 0))
hIsland = hIsland.sub(rect(1e-08, -1.928181850057285e-09).transl(-4.004576502088963e-08, -3.9307430368859814e-08, 0))
hIsland = hIsland.sub(rect(1e-08, -3.308461501543303e-09).transl(1.0869411952122918e-07, -1.45539728138282e-08, 0))
hIsland = hIsland.sub(rect(1e-08, -3.277164902546842e-09).transl(-6.034467578346061e-08, -3.655633762474892e-08, 0))
hIsland = hIsland.sub(rect(1e-08, -3.0888648654739204e-09).transl(-1.0703263016932018e-08, -4e-08, 0))
hIsland = hIsland.add(rect(1e-08, 2.6316313719902144e-09).transl(4.3515322208706516e-09, -4e-08, 0))
hIsland = hIsland.add(rect(1e-08, 1.2880926784773562e-11).transl(-8.618874259919527e-08, -2.9072566820584696e-08, 0))
hIsland = hIsland.sub(rect(1e-08, -3.314275592333346e-09).transl(7.213422880974368e-08, -3.381766844853778e-08, 0))
hIsland = hIsland.sub(rect(1e-08, -1.805166396026009e-09).transl(-1.1443716564924016e-07, -4.417800777697091e-09, 0))
hIsland = hIsland.add(rect(1e-08, 6.0676346392107444e-09).transl(-1.9452910946884817e-09, -4e-08, 0))
hIsland = hIsland.add(rect(1e-08, 1.1315738548944865e-08).transl(1.1002591493510258e-07, -1.2974383148816925e-08, 0))
hIsland = hIsland.sub(rect(1e-08, -5.2469158154318427e-11).transl(6.640721544925673e-08, -3.5267848038716585e-08, 0))
hIsland = hIsland.sub(rect(1e-08, -4.836697870371352e-09).transl(3.227247449290836e-08, -3.9796317943828285e-08, 0))
hIsland = hIsland.sub(rect(1e-08, -2.89298593035878e-10).transl(5.606167164987876e-08, -3.732786799760744e-08, 0))
hIsland = hIsland.sub(rect(1e-08, -4.516222418958689e-09).transl(-8.311200380926094e-08, -3.028081238792111e-08, 0))
hIsland = hIsland.add(rect(1e-08, 4.7848799102111e-09).transl(6.430388673548681e-08, -3.574216886624471e-08, 0))
hIsland = hIsland.add(rect(1e-08, 3.123216611800577e-09).transl(-1.1049373567588335e-07, -1.2365313837135788e-08, 0))
hIsland = hIsland.add(rect(1e-08, 3.233655363931134e-09).transl(1.1193046109773315e-07, -1.0246241313190088e-08, 0))
hIsland = hIsland.sub(rect(1e-08, -1.2961184130493484e-09).transl(1.0645687326280404e-07, -1.6833165038598218e-08, 0))
hIsland = hIsland.sub(rect(1e-08, -2.017551411492458e-09).transl(-1.073503010077145e-07, -1.59691735170653e-08, 0))
hIsland = hIsland.add(rect(1e-08, 4.0343819253938146e-09).transl(1.2525036011609896e-09, -4e-08, 0))
hIsland = hIsland.add(rect(1e-08, 4.333112429405805e-09).transl(-4.7183535192483924e-08, -3.859331025606102e-08, 0))
hIsland = hIsland.sub(rect(1e-08, -3.0279197114845722e-09).transl(6.344243686111081e-08, -3.592790854774773e-08, 0))
hIsland = hIsland.add(rect(1e-08, 5.226491677223538e-10).transl(1.7506095344311745e-08, -4e-08, 0))
hIsland = hIsland.add(rect(1e-08, 3.3026712994425867e-09).transl(-4.7204858018707126e-08, -3.8590783272081744e-08, 0))
hIsland = hIsland.add(rect(1e-08, 3.869953681971566e-09).transl(-7.785110384913392e-08, -3.211321067584868e-08, 0))
hIsland = hIsland.add(rect(1e-08, 3.100598770186843e-09).transl(8.279503262023763e-08, -3.0399215471995344e-08, 0))
hIsland = hIsland.sub(rect(1e-08, -2.859184917746144e-09).transl(1.3106725589720267e-08, -4e-08, 0))
hIsland = hIsland.sub(rect(1e-08, -4.525831057356649e-10).transl(-1.8737780881606e-08, -4e-08, 0))
hIsland = hIsland.add(rect(1e-08, 1.0202303904161324e-09).transl(1.0973918767800495e-07, 1.3332403786626317e-08, 0))
hIsland = hIsland.add(rect(1e-08, 1.7364706396062186e-10).transl(-4.896481287985629e-08, 3.837391524082509e-08, 0))
hIsland = hIsland.add(rect(1e-08, 1.1012752566463262e-09).transl(-1.2449249194247734e-08, 4e-08, 0))
hIsland = hIsland.sub(rect(1e-08, -1.0852126553193723e-08).transl(8.69499284420063e-08, 2.8756216233577457e-08, 0))
hIsland = hIsland.add(rect(1e-08, 2.160526708246719e-09).transl(-2.3218000118720273e-08, 3.9999887702933665e-08, 0))
hIsland = hIsland.sub(rect(1e-08, -3.734354921808313e-09).transl(-5.545454714194506e-08, 3.7428450633021385e-08, 0))
hIsland = hIsland.sub(rect(1e-08, -1.7584468612770202e-09).transl(1.1454904456776256e-07, 3.955624330376576e-09, 0))
hIsland = hIsland.add(rect(1e-08, 3.0901810704067133e-09).transl(6.646067598199525e-08, 3.5255399895259634e-08, 0))
hIsland = hIsland.sub(rect(1e-08, -2.4549467725217643e-09).transl(7.306702330421014e-08, 3.355804490119866e-08, 0))
hIsland = hIsland.add(rect(1e-08, 6.963932349094241e-09).transl(-1.1476052928832249e-07, 2.8841940924187633e-09, 0))
hIsland = hIsland.sub(rect(1e-08, -5.247176537740261e-09).transl(-8.098238695659551e-08, 3.1055906666953796e-08, 0))
hIsland = hIsland.add(rect(1e-08, 8.326999617781049e-10).transl(1.2921077355963348e-08, 4e-08, 0))
hIsland = hIsland.add(rect(1e-08, 1.203523084989213e-09).transl(-3.2818643894760964e-08, 3.9771545698800915e-08, 0))
hIsland = hIsland.add(rect(1e-08, 5.378522045131639e-09).transl(-1.0296311324268871e-07, 1.9780938871413123e-08, 0))
hIsland = hIsland.sub(rect(1e-08, -2.376734987598622e-10).transl(-9.745024485149011e-08, 2.349902882421162e-08, 0))
hIsland = hIsland.add(rect(1e-08, 1.2543224318004902e-08).transl(6.74675907662746e-08, 3.501723413511098e-08, 0))
hIsland = hIsland.sub(rect(1e-08, -3.736771679726442e-09).transl(9.954120821156738e-08, 2.2192845479033024e-08, 0))
hIsland = hIsland.add(rect(1e-08, 1.6416387047551354e-09).transl(-9.015850266595046e-08, 2.7338581141689524e-08, 0))
hIsland = hIsland.add(rect(1e-08, 2.522252741617077e-10).transl(-1.0716194085662292e-07, 1.615594906579905e-08, 0))
hIsland = hIsland.sub(rect(1e-08, -4.629832957659877e-09).transl(-5.232631314739371e-08, 3.791336098087288e-08, 0))
hIsland = hIsland.add(rect(1e-08, 5.2332985755385956e-09).transl(6.567337586722652e-08, 3.5436737721721954e-08, 0))
hIsland = hIsland.add(rect(1e-08, 1.259948521019401e-10).transl(-8.089042556074824e-08, 3.1088320518557286e-08, 0))
hIsland = hIsland.add(rect(1e-08, 5.403548126015053e-09).transl(2.773861113623707e-09, 4e-08, 0))
hIsland = hIsland.add(rect(1e-08, 6.547682333712071e-09).transl(3.572846867046548e-08, 3.961531965158617e-08, 0))
hIsland = hIsland.add(rect(1e-08, 6.852871198053987e-09).transl(9.154338788033835e-08, 2.668093340833093e-08, 0))
hIsland = hIsland.add(rect(1e-08, 8.58588401709884e-09).transl(6.45180071875058e-08, 3.569524195913795e-08, 0))
hIsland = hIsland.sub(rect(1e-08, -4.024140704217998e-09).transl(9.35978827297564e-08, 2.564826408698862e-08, 0))
hIsland = hIsland.add(rect(1e-08, 4.1965976319004985e-09).transl(-1.1176564062310809e-07, 1.0512941388086547e-08, 0))
hIsland = hIsland.add(rect(1e-08, 2.4590067400528582e-09).transl(-1.2614018793367304e-08, 4e-08, 0))
hIsland = hIsland.sub(rect(1e-08, -2.8399312635891507e-09).transl(3.5252740655586443e-10, 4e-08, 0))
hIsland = hIsland.add(rect(1e-08, 2.6304378735974938e-09).transl(-4.905089794674677e-08, 3.836288454259883e-08, 0))
hIsland = hIsland.sub(rect(1e-08, -5.033274427777455e-09).transl(2.0633711326518028e-08, 4e-08, 0))
hIsland = hIsland.add(rect(1e-08, 5.676314552454845e-09).transl(8.660529167041657e-08, 2.8900346579646313e-08, 0))
hIsland = hIsland.add(rect(1e-08, 7.397357956203829e-09).transl(-7.789058414454897e-08, 3.2100456015788717e-08, 0))
hIsland = hIsland.add(rect(1e-08, 2.0033446064415967e-09).transl(7.994590781300366e-08, 3.141635632705074e-08, 0))
hIsland = hIsland.sub(rect(1e-08, -3.0925357646313606e-09).transl(-6.402391944423089e-08, 3.580306888619749e-08, 0))
hIsland = hIsland.add(rect(1e-08, 9.778330642016564e-10).transl(-8.954191945844247e-08, 2.76221225645139e-08, 0))
hIsland = hIsland.add(rect(1e-08, 1.5232123335218e-09).transl(-1.0838904349370872e-07, 1.4889074737747257e-08, 0))
hIsland = hIsland.sub(rect(1e-08, -1.0565979220981107e-08).transl(-5.882547253767042e-08, 3.684262632916339e-08, 0))
hIsland = hIsland.sub(rect(1e-08, -5.00584816732119e-09).transl(-6.466340135471854e-08, 3.566320345711209e-08, 0))
hIsland = hIsland.add(rect(1e-08, 4.008730478710096e-10).transl(-9.703767842090867e-08, 2.3744155281392204e-08, 0))
hIsland = hIsland.sub(rect(1e-08, -7.993578176277499e-09).transl(-4.178690892519352e-08, 3.9157121462826326e-08, 0))
hIsland = hIsland.sub(rect(1e-08, -1.3552191742348817e-09).transl(9.720570278701906e-08, 2.3644794540508742e-08, 0))
hIsland = hIsland.add(rect(1e-08, 2.9707994577060365e-09).transl(-9.59081766472641e-08, 2.4395906633820248e-08, 0))
hIsland = hIsland.sub(rect(1e-08, -2.3035302775425368e-09).transl(4.4345744259306765e-08, 3.890845054754349e-08, 0))
hIsland = hIsland.sub(rect(1e-08, -6.181826153305469e-09).transl(5.4223610105927225e-08, 3.762587235786774e-08, 0))
hIsland = hIsland.sub(rect(1e-08, -4.397612359874958e-09).transl(-4.093002846835823e-08, 3.923299140011004e-08, 0))
hIsland = hIsland.sub(rect(1e-08, -6.137499040526966e-09).transl(4.599226502752853e-08, 3.873070163733425e-08, 0))
hIsland = hIsland.sub(rect(1e-08, -4.6088713602731775e-09).transl(1.0885374083093052e-07, 1.4375041285946563e-08, 0))
hIsland = hIsland.sub(rect(1e-08, -1.2736698574789603e-09).transl(7.92562607589228e-09, 4e-08, 0))
hIsland = hIsland.add(rect(1e-08, 2.270858857752019e-09).transl(-5.2481043760094335e-08, 3.7890669651735845e-08, 0))
hIsland = hIsland.add(rect(1e-08, 3.7896706951357045e-09).transl(4.574531004035559e-08, 3.875825632188659e-08, 0))
hIsland = hIsland.sub(rect(1e-08, -4.149565953887646e-09).transl(2.220330628956184e-08, 4e-08, 0))
hIsland = hIsland.add(rect(1e-08, 2.1142009455577066e-09).transl(4.90391942745993e-08, 3.836438654922838e-08, 0))
hIsland = hIsland.add(rect(1e-08, 7.188303088384543e-10).transl(-1.0789424003255036e-08, 4e-08, 0))
hIsland = hIsland.add(rect(1e-08, 3.3054874982320147e-09).transl(9.714734986833406e-08, 2.3679374175486476e-08, 0))
hIsland = hIsland.add(rect(1e-08, 5.2505537913588025e-09).transl(-9.715344423386599e-08, 2.3675766319661924e-08, 0))
hIsland = hIsland.sub(rect(1e-08, -1.7171061966804031e-09).transl(-8.643466550664198e-08, 2.8971151846809566e-08, 0))
hIsland = hIsland.sub(rect(1e-08, -3.1496763073521888e-09).transl(1.1756998986940089e-08, 4e-08, 0))
hIsland = hIsland.add(rect(1e-08, 1.8029517090065648e-09).transl(-3.5920928728900145e-08, 3.960353997081307e-08, 0))
hIsland = hIsland.add(rect(1e-08, 5.861140785493331e-10).transl(-6.511990531226679e-08, 3.556169211954924e-08, 0))
hIsland = hIsland.sub(rect(1e-08, -6.8626725532128016e-09).transl(2.8966660935337172e-08, 3.991578790716829e-08, 0))
hIsland = hIsland.add(rect(1e-08, 3.9316047812194406e-09).transl(6.773736971792179e-08, 3.495221623582995e-08, 0))
hIsland = hIsland.sub(rect(1e-08, -1.8457698964702784e-09).transl(2.7295376337270277e-08, 3.9956379197648047e-08, 0))
hIsland = hIsland.add(rect(1e-08, 4.732784713462743e-10).transl(1.0279215204919237e-07, 1.991101409517872e-08, 0))
hIsland = hIsland.sub(rect(1e-08, -5.46242590486954e-09).transl(-1.0929343258106806e-07, 1.3868430465891626e-08, 0))
hIsland = hIsland.add(rect(1e-08, 3.0252144845981765e-09).transl(-1.0776694514260117e-07, 1.5546533668630967e-08, 0))
hIsland = hIsland.add(rect(1e-08, 3.1976562871494443e-09).transl(-7.677652620973221e-08, 3.245495709212099e-08, 0))
hIsland = hIsland.add(rect(1e-08, 6.016234717363919e-10).transl(-9.16475892472082e-08, 2.6630243089093866e-08, 0))
hIsland = hIsland.sub(rect(1e-08, -2.6608487879677528e-11).transl(5.020632684011876e-08, 3.821097482829592e-08, 0))
hIsland = hIsland.sub(rect(1e-08, -2.8194051109366787e-10).transl(-5.109945427604185e-08, 3.808859602732089e-08, 0))
hIsland = hIsland.add(rect(1e-08, 2.69784793074109e-09).transl(-4.869026851434989e-08, 3.8408829777158994e-08, 0))
hIsland = hIsland.add(rect(1e-08, 1.1441634586701812e-09).transl(1.0269961892918877e-07, 1.9980949067107018e-08, 0))
hIsland = hIsland.sub(rect(1e-08, -3.122315712298651e-09).transl(2.962709630079475e-08, 3.989608807857649e-08, 0))
hIsland = hIsland.sub(rect(1e-08, -4.5254194113144904e-09).transl(-5.5033574968819336e-08, 3.749694398314419e-08, 0))
hIsland = hIsland.add(rect(1e-08, 4.5498069702144853e-10).transl(-8.418636464934109e-08, 2.9871270063991106e-08, 0))
hIsland = hIsland.add(rect(1e-08, 1.5493549587426975e-09).transl(-1.0576315905201009e-08, 4e-08, 0))
hIsland = hIsland.add(rect(1e-08, 2.5380573471889506e-09).transl(-1.0944511468531513e-07, 1.3688694899843626e-08, 0))
hIsland = hIsland.add(rect(1e-08, 3.6508885666601624e-09).transl(5.4459306389983256e-08, 3.758874072628322e-08, 0))
hIsland = hIsland.add(rect(1e-08, 8.593491624973742e-10).transl(1.0442978428682219e-07, 1.861555253089603e-08, 0))
hIsland = hIsland.sub(rect(1e-08, -1.3049719727702938e-09).transl(2.990777960278795e-08, 3.9887086806924845e-08, 0))
hIsland = hIsland.add(rect(1e-08, 3.958996512122982e-09).transl(3.7637051021988374e-08, 3.949050934626149e-08, 0))
hIsland = hIsland.add(rect(1e-08, 5.092356881412638e-09).transl(-6.334671436620174e-08, 3.5948247404643125e-08, 0))
hIsland = hIsland.sub(rect(1e-08, -3.1525559316227804e-10).transl(-7.71591492048511e-08, 3.233446006412219e-08, 0))
hIsland = hIsland.add(rect(1e-08, 2.555672169241584e-09).transl(-9.038250504012051e-09, 4e-08, 0))
hIsland = hIsland.sub(rect(1e-08, -2.06792917865001e-09).transl(-8.675256620567426e-08, 2.8838938384480786e-08, 0))
hIsland = hIsland.sub(rect(1e-08, -3.920973975695442e-09).transl(2.4582166508471623e-08, 3.999408450856875e-08, 0))
hIsland = hIsland.add(rect(1e-08, 2.744714968016549e-09).transl(5.216578019286799e-08, 3.79367627880868e-08, 0))
hIsland = hIsland.sub(rect(1e-08, -7.754348593099363e-10).transl(-7.716248430566327e-08, 3.2333404025071976e-08, 0))
hIsland = hIsland.sub(rect(1e-08, -1.3051775106851437e-10).transl(-8.143110567222562e-08, 3.089651576125506e-08, 0))
hIsland = hIsland.sub(rect(1e-08, -2.3878830097239378e-09).transl(-2.0598120762730956e-08, 4e-08, 0))
hIsland = hIsland.sub(rect(1e-08, -1.301461992778272e-09).transl(-1.1707079482077257e-08, 4e-08, 0))
hIsland = hIsland.add(rect(1e-08, 3.92970774617451e-09).transl(-7.428586169039839e-08, 3.3208285773035855e-08, 0))
hIsland = hIsland.add(rect(1e-08, 2.8242845580564657e-09).transl(5.459945997997397e-08, 3.7566510970516346e-08, 0))
hIsland = hIsland.sub(rect(1e-08, -2.1385137708237916e-09).transl(1.1396885509347827e-07, 5.972011009492197e-09, 0))
hIsland = hIsland.sub(rect(1e-08, -1.981774094029943e-09).transl(6.564670215309105e-09, 4e-08, 0))
hIsland = hIsland.sub(rect(1e-08, -4.549474333536038e-09).transl(1.0523257145166735e-07, 1.793605630495097e-08, 0))
hIsland = hIsland.add(rect(1e-08, 3.0520965119340812e-09).transl(-1.9502529714195786e-10, 4e-08, 0))
hIsland = hIsland.sub(rect(1e-08, -3.9503537536113705e-09).transl(-8.40963951177354e-08, 2.9906061190968474e-08, 0))
hIsland = hIsland.add(rect(1e-08, 6.318228337252134e-09).transl(-1.1122178574106312e-07, 1.1345381384656861e-08, 0))
vIsland := hIsland.rotz(pi / 2)
vIslands := Universe().Inverse()
hIslands := Universe().Inverse()
hIslands = hIslands.add(hIsland.transl(-a/2, a, 0))
hIslands = hIslands.add(hIsland.transl(-a/2, -a, 0))
hIslands = hIslands.add(hIsland.transl(a/2, a, 0))
hIslands = hIslands.add(hIsland.transl(a/2, -a, 0))
hIslands = hIslands.add(hIsland.transl(-a/2, 0, 0))
hIslands = hIslands.add(hIsland.transl(a/2, 0, 0))
vIslands = vIslands.add(vIsland.transl(-a, a/2, 0))
vIslands = vIslands.add(vIsland.transl(a, a/2, 0))
vIslands = vIslands.add(vIsland.transl(-a, -a/2, 0))
vIslands = vIslands.add(vIsland.transl(a, -a/2, 0))
vIslands = vIslands.add(vIsland.transl(0, a/2, 0))
vIslands = vIslands.add(vIsland.transl(0, -a/2, 0))
DefRegion(1, hIslands)
DefRegion(2, vIslands)
TableAdd(m_full.Region(1))
TableAdd(m_full.Region(2))
setgeom(hIslands.add(vIslands))
save(m)
r2o2 := sqrt(2) / 2
m = RandomMagSeed(4)
B_ext = vector(Bmax*r2o2, Bmax*r2o2, 0)
relax()
minimize()
for B := Bmax; B >= -Bmax; B -= Bstep {
	B_ext = vector(B*r2o2, B*r2o2, 0)
	minimize()
	tablesave()
}
//********************************************************************//
//Please cite the following references, relevant for your simulation. //
//See bibtex file in output folder for justification.                 //
//********************************************************************//
//   * Vansteenkiste et al., AIP Adv. 4, 107133 (2014).
//   * Exl et al., J. Appl. Phys. 115, 17D118 (2014).
