# t (s)	mx ()	my ()	mz ()	B_extx (T)	B_exty (T)	B_extz (T)	m_fullx (A/m)	m_fully (A/m)	m_fullz (A/m)	m_full.region1x (A/m)	m_full.region1y (A/m)	m_full.region1z (A/m)	m_full.region2x (A/m)	m_full.region2y (A/m)	m_full.region2z (A/m)
0	0.6462275	0.64622414	1.6872591e-10	0.07071067	0.07071067	0	154909.95	154909.14	4.0178573e-05	648373.06	256342.17	0.00022254916	256345.47	648371.56	7.4493444e-05
0	0.6461272	0.6461247	-3.3567574e-10	0.07056918	0.07056918	0	154885.94	154885.31	-8.163265e-05	648461	256114.67	-0.00016481675	256117.17	648459.9	-0.00030169846
0	0.6460248	0.64602226	-2.56641e-10	0.070427895	0.07042789	0	154861.38	154860.78	-6.090561e-05	648552.1	255880.23	-0.00017692194	255882.66	648551	-0.0002011323
0	0.6459206	0.64591813	-3.5343636e-10	0.070286386	0.070286386	0	154836.39	154835.8	-9.2793365e-05	648644.56	255641.88	-0.0002709699	255644.28	648643.44	-0.00027562573
0	0.6458169	0.6458145	1.4830119e-10	0.07014501	0.07014501	0	154811.55	154810.94	3.1728316e-05	648736.2	255405.12	0.00018995829	255407.55	648735.06	-1.4898689e-05
0	0.6457127	0.6457102	-1.8204636e-10	0.07000352	0.07000352	0	154786.55	154785.95	-4.7831632e-05	648828.4	255166.97	-0.00018250894	255169.36	648827.25	-0.00013036352
0	0.64560825	0.64560574	-6.216217e-11	0.06986222	0.069862224	0	154761.52	154760.9	-1.6581633e-05	648920.56	254928.6	1.6761025e-05	254931.03	648919.44	-0.00010056615
0	0.64550376	0.6455012	-2.7617766e-10	0.069720745	0.069720745	0	154736.47	154735.86	-6.090561e-05	649012.6	254690.16	-0.00017319726	254692.56	649011.5	-0.0002011323
0	0.645399	0.6453964	-7.1042484e-11	0.06957926	0.06957926	0	154711.36	154710.75	-1.8813775e-05	649104.75	254451.38	-9.218564e-05	254453.81	649103.6	-1.4898689e-05
0	0.6452938	0.6452912	-3.9073367e-10	0.06943794	0.06943794	0	154686.14	154685.53	-9.183674e-05	649197.06	254211.78	-0.00041902563	254214.2	649195.94	-0.00012663886
0	0.64518845	0.64518595	-4.3779932e-10	0.0692964	0.0692964	0	154660.89	154660.27	-9.9330355e-05	649289.3	253972.05	-0.0003529127	253974.5	649288.2	-0.00024955304
0	0.64508283	0.6450803	-4.1204642e-10	0.0691551	0.0691551	0	154635.58	154634.97	-9.677934e-05	649381.6	253731.9	-0.00036501788	253734.36	649380.5	-0.00024210369
0	0.6449768	0.6449742	-2.5042476e-10	0.0690136	0.0690136	0	154610.16	154609.53	-6.186224e-05	649474.25	253490.8	-0.00012943236	253493.25	649473.2	-0.00022348034
0	0.64487106	0.6448686	-7.15753e-10	0.068872124	0.068872124	0	154584.81	154584.2	-0.0001705995	649566.3	253250.81	-0.00053262815	253253.27	649565.25	-0.00047675805
0	0.64476466	0.64476216	-2.086873e-10	0.06873082	0.06873082	0	154559.3	154558.7	-5.596301e-05	649658.9	253009.27	-0.00017971544	253011.72	649657.75	-0.00015271157
0	0.6446582	0.6446557	1.0123554e-10	0.06858932	0.06858932	0	154533.77	154533.17	2.3596938e-05	649751.2	252767.73	0.00012663886	252770.19	649750.2	1.1174016e-05
0	0.64455116	0.6445486	-9.324326e-11	0.068447955	0.068447955	0	154508.12	154507.52	-1.2755102e-05	649844.06	252525.06	-6.0525923e-05	252527.52	649843.06	-6.70441e-05
0	0.6444442	0.6444417	-2.85946e-10	0.06830648	0.06830648	0	154482.5	154481.89	-6.792092e-05	649936.56	252282.9	-0.00018437128	252285.36	649935.56	-0.00022348034
0	0.6443372	0.6443347	-3.8895762e-10	0.06816515	0.06816515	0	154456.81	154456.2	-9.311224e-05	650029.1	252040.48	-0.00034266984	252042.94	650028	-0.000227205
0	0.6442293	0.64422673	-1.2521238e-10	0.068023674	0.068023674	0	154430.98	154430.36	-2.614796e-05	650122	251796.58	-4.0040228e-05	251799.03	650120.94	-0.00011546484
0	0.644122	0.64411944	-2.8505798e-10	0.06788219	0.06788219	0	154405.23	154404.64	-6.664541e-05	650214.4	251553.94	-0.00027003873	251556.44	650213.25	-0.00012663886
0	0.6440132	0.6440106	-1.6162165e-10	0.06774088	0.06774088	0	154379.16	154378.56	-3.890306e-05	650307.75	251308.27	-7.169994e-05	251310.73	650306.6	-0.00014526222
0	0.6439051	0.64390254	-3.6409275e-11	0.067599334	0.067599334	0	154353.25	154352.64	-1.1160714e-05	650400.6	251064.05	-1.1174016e-05	251066.5	650399.5	-1.8623361e-05
0	0.6437968	0.64379424	-7.72587e-11	0.06745803	0.06745803	0	154327.3	154326.66	-1.690051e-05	650493.3	250819.7	-0.0001368817	250822.19	650492.2	2.2348033e-05
0	0.6436879	0.64368546	2.664093e-10	0.06731653	0.06731653	0	154301.19	154300.58	6.5369895e-05	650586.3	250574.28	0.00020578814	250576.77	650585.25	0.00019368295
0	0.643579	0.6435764	-1.2787647e-10	0.06717506	0.06717506	0	154275.06	154274.47	-2.9336734e-05	650679.3	250328.8	-7.263111e-05	250331.3	650678.25	-0.00011174017
0	0.64346904	0.6434665	-1.829344e-10	0.06703376	0.06703376	0	154248.72	154248.11	-3.9859693e-05	650772.94	250081.25	-0.00015643623	250083.72	650771.9	-8.939213e-05
0	0.64336	0.6433574	-1.7050196e-10	0.066892266	0.066892266	0	154222.58	154221.95	-4.2729593e-05	650865.6	249835.8	-0.00014060638	249838.3	650864.56	-0.00013781287
0	0.64324975	0.64324707	-4.7332055e-10	0.066750884	0.066750884	0	154196.14	154195.52	-0.00010841837	650959.25	249587.83	-0.0002737634	249590.31	650958.1	-0.00039481526
0	0.6431399	0.6431373	-7.3706576e-11	0.06660941	0.06660941	0	154169.8	154169.2	-2.0089286e-05	651052.3	249341.02	-5.587008e-06	249343.52	651051.2	-7.4493444e-05
0	0.6430294	0.6430269	-5.2571436e-10	0.06646809	0.06646809	0	154143.34	154142.73	-0.000125	651145.7	249093.08	-0.00036222438	249095.58	651144.5	-0.0003612932
0	0.64291906	0.64291656	-3.516603e-10	0.06632662	0.06632662	0	154116.9	154116.28	-8.609694e-05	651238.75	248845.56	-0.00019554529	248848.05	651237.6	-0.00030542313
0	0.6428075	0.6428049	-3.463321e-10	0.06618514	0.06618514	0	154090.14	154089.53	-7.876276e-05	651332.56	248595.55	-0.00023092968	248598.03	651331.4	-0.00026445172
0	0.6426963	0.6426937	-4.4401552e-10	0.066043824	0.066043824	0	154063.48	154062.86	-0.000105867344	651426.06	248346.23	-0.0002886621	248348.77	651424.94	-0.00031659714
0	0.64258516	0.64258254	-3.942858e-10	0.06590227	0.06590227	0	154036.83	154036.22	-8.976403e-05	651519.4	248097.3	-0.00021416866	248099.83	651518.4	-0.00031659714
0	0.6424737	0.6424712	-2.886101e-10	0.06576097	0.06576097	0	154010.14	154009.52	-6.409439e-05	651612.75	247847.98	-0.00012384536	247850.5	651611.6	-0.00028679977
0	0.64236164	0.642359	-5.2571436e-10	0.065619476	0.065619476	0	153983.23	153982.62	-0.00012675383	651706.5	247597.17	-0.0003640867	247599.7	651705.3	-0.0003724672
0	0.6422494	0.64224684	-2.548649e-10	0.06547816	0.06547816	0	153956.34	153955.73	-5.6441328e-05	651800.1	247346.5	-0.00017412842	247349.05	651799	-0.00018995829
0	0.642137	0.6421343	-2.8772207e-10	0.0653367	0.0653367	0	153929.4	153928.78	-6.6007655e-05	651893.9	247095.25	-0.00023372319	247097.75	651892.94	-0.00016388558
0	0.6420242	0.64202166	-2.0779926e-10	0.06519521	0.06519521	0	153902.38	153901.75	-5.6122448e-05	651987.5	246843.8	-0.00015084923	246846.34	651986.44	-0.00016016091
0	0.641911	0.6419083	-1.0833979e-10	0.0650539	0.0650539	0	153875.22	153874.6	-2.8380102e-05	652081.6	246591.06	-3.8177892e-05	246593.61	652080.5	-0.00010056615
0	0.64179754	0.64179504	-2.57529e-10	0.06491236	0.06491236	0	153848.03	153847.42	-6.505102e-05	652175.56	246338.39	-0.0002188245	246340.94	652174.5	-0.00017133492
0	0.64168406	0.64168143	-2.948263e-10	0.06477103	0.06477103	0	153820.83	153820.22	-7.52551e-05	652269.6	246085.5	-0.00027283223	246088.05	652268.56	-0.00015643623
0	0.6415709	0.6415684	-1.3586875e-10	0.06462956	0.06462956	0	153793.75	153793.12	-3.507653e-05	652362.94	245833.9	-0.0001285012	245836.45	652361.8	-8.194279e-05
0	0.6414561	0.64145356	-3.347877e-10	0.06448809	0.06448809	0	153766.19	153765.56	-8.577806e-05	652457.5	245578.53	-0.00021044398	245581.1	652456.4	-0.0002570024
0	0.6413426	0.6413399	-1.0833979e-10	0.06434676	0.06434675	0	153738.97	153738.34	-2.997449e-05	652551	245325.98	-0.00014339988	245328.53	652550	-2.6072705e-05
0	0.6412277	0.6412251	-4.5289585e-11	0.06420529	0.06420529	0	153711.44	153710.8	-1.546556e-05	652645.1	245071.06	-5.0283074e-05	245073.61	652644.06	-1.4898689e-05
0	0.6411126	0.64111	-1.9536683e-10	0.06406391	0.06406391	0	153683.88	153683.23	-5.086097e-05	652739.3	244815.81	-0.00016295441	244818.38	652738.25	-8.939213e-05
0	0.6409976	0.64099497	-5.3281862e-12	0.06392241	0.063922405	0	153656.28	153655.66	6.377551e-07	652833.44	244560.55	-3.7246723e-06	244563.12	652832.3	2.9797378e-05
0	0.6408822	0.6408796	-1.9359077e-10	0.063781105	0.063781105	0	153628.6	153627.98	-4.432398e-05	652927.75	244304.75	-6.611293e-05	244307.3	652926.6	-0.00018995829
0	0.640766	0.6407634	-3.0814679e-10	0.06363964	0.06363964	0	153600.77	153600.14	-7.079082e-05	653022.4	244047.45	-0.00017319726	244050.02	653021.3	-0.00024582836
0	0.64065075	0.64064807	-6.233978e-10	0.06349814	0.06349815	0	153573.11	153572.48	-0.00014764031	653116.4	243792.05	-0.00044789183	243794.62	653115.25	-0.00041716328
0	0.6405345	0.6405319	-3.347877e-10	0.06335683	0.06335683	0	153545.28	153544.64	-7.52551e-05	653210.6	243535.11	-0.00017878426	243537.69	653209.56	-0.0002681764
0	0.6404172	0.6404146	-2.9660238e-10	0.06321529	0.06321529	0	153517.17	153516.53	-7.158801e-05	653305.6	243275.95	-4.5627236e-05	243278.55	653304.5	-0.0003724672
0	0.6403007	0.64029807	-4.0849428e-11	0.06307396	0.06307396	0	153489.2	153488.58	-8.131377e-06	653400.1	243018.2	-1.9554529e-05	243020.8	653399	-3.352205e-05
0	0.6401841	0.64018154	-2.8683403e-10	0.06293249	0.06293249	0	153461.28	153460.66	-6.808036e-05	653494	242761.2	-0.0003584997	242763.81	653492.94	-5.214541e-05
0	0.6400663	0.64006376	-5.4436305e-10	0.06279103	0.06279103	0	153433.05	153432.39	-0.00013042091	653588.75	242501.5	-0.0002998361	242504.1	653587.56	-0.00047303337
0	0.63994884	0.63994616	-4.9729737e-10	0.06264969	0.06264969	0	153404.88	153404.23	-0.00011527423	653683.3	242242.4	-0.00029518027	242244.98	653682.25	-0.0004022646
0	0.6398309	0.6398283	-4.2625492e-10	0.062508225	0.062508225	0	153376.61	153375.97	-0.00010235969	653777.94	241982.75	-0.00030635428	241985.36	653776.8	-0.00034266984
0	0.6397126	0.63971	-1.8471046e-10	0.06236684	0.06236684	0	153348.25	153347.61	-4.559949e-05	653872.7	241722.36	-7.8218116e-05	241724.97	653871.7	-0.0001862336
0	0.63959396	0.6395913	-4.688804e-10	0.062225346	0.062225346	0	153319.8	153319.19	-0.00011192602	653967.75	241461.19	-0.0003761919	241463.78	653966.6	-0.00029052445
0	0.63947535	0.6394727	-1.7583016e-10	0.062084038	0.062084038	0	153291.39	153290.75	-3.8584185e-05	654062.5	241200.47	-8.473629e-05	241203.06	654061.4	-0.00016016091
0	0.6393568	0.63935417	-5.5590743e-10	0.061942577	0.061942577	0	153262.95	153262.31	-0.00013265306	654156.9	240939.97	-0.00045441	240942.6	654155.94	-0.00036501788
0	0.6392366	0.639234	-3.658688e-10	0.061801083	0.06180108	0	153234.17	153233.53	-8.0357146e-05	654252.25	240676.39	-0.00020206347	240679	654251.2	-0.00026445172
0	0.6391179	0.6391153	-4.5555992e-10	0.061659772	0.061659772	0	153205.69	153205.05	-0.00010235969	654346.75	240415.64	-0.00028679977	240418.27	654345.6	-0.00034266984
0	0.6389977	0.638995	-2.9571434e-10	0.061518237	0.061518237	0	153176.88	153176.23	-6.792092e-05	654441.94	240152.2	-0.0001778531	240154.81	654440.8	-0.00020858164
0	0.63887775	0.6388751	-2.1312746e-10	0.061376892	0.061376892	0	153148.14	153147.5	-5.2933672e-05	654536.75	239889.45	-0.00019926997	239892.11	654535.7	-9.6841475e-05
0	0.63875675	0.6387541	-2.717375e-10	0.06123543	0.06123543	0	153119.11	153118.47	-6.648597e-05	654632.2	239624.64	-0.00015084923	239627.25	654631.06	-0.00024210369
0	0.63863635	0.63863367	-1.2965254e-10	0.061093967	0.061093967	0	153090.28	153089.62	-3.125e-05	654727.06	239361.25	-0.00015457389	239363.88	654725.94	-3.7246723e-06
0	0.6385155	0.63851285	-3.0370662e-10	0.060952656	0.060952652	0	153061.28	153060.67	-7.429847e-05	654822	239097.1	-0.00017878426	239099.7	654820.94	-0.00027562573
0	0.6383941	0.63839144	-3.3301165e-10	0.060811166	0.060811166	0	153032.19	153031.53	-8.1313774e-05	654917.1	238831.9	-0.00021416866	238834.55	654916.06	-0.00024582836
0	0.63827246	0.6382698	-1.0922782e-10	0.060669772	0.060669772	0	153003.03	153002.38	-2.3915816e-05	655012.44	238566.34	-2.2348033e-05	238568.97	655011.44	-9.6841475e-05
0	0.63815016	0.6381475	-2.0247108e-10	0.060528316	0.060528316	0	152973.69	152973.06	-4.145408e-05	655107.94	238299.5	-0.0001340882	238302.16	655106.94	-0.00011918951
0	0.63802797	0.6380253	-3.232433e-10	0.060386974	0.060386974	0	152944.4	152943.77	-7.9081634e-05	655203.4	238033.12	-0.0002514154	238035.75	655202.25	-0.000227205
0	0.637906	0.63790333	-1.9359077e-10	0.06024551	0.06024551	0	152915.17	152914.53	-3.9540817e-05	655298.4	237767.31	-0.00015457389	237769.97	655297.25	-0.00011918951
0	0.63778245	0.6377797	-3.8718154e-10	0.06010405	0.06010405	0	152885.56	152884.9	-9.215561e-05	655394.2	237498.53	-0.0002830751	237501.17	655393.06	-0.00028679977
0	0.63766015	0.6376575	-1.5629346e-10	0.059962712	0.059962712	0	152856.25	152855.61	-3.8265305e-05	655488.94	237232.61	-0.00018250894	237235.25	655487.94	-4.0971394e-05
0	0.6375365	0.6375339	-4.1115839e-10	0.059821166	0.059821166	0	152826.62	152825.97	-9.66199e-05	655584.56	236963.94	-0.00021230632	236966.6	655583.56	-0.0003724672
0	0.63741213	0.6374095	-3.401159e-10	0.05967985	0.05967985	0	152796.81	152796.16	-8.67347e-05	655680.56	236693.81	-0.0002514154	236696.47	655679.44	-0.00027562573
0	0.6372885	0.63728577	-3.7030895e-10	0.059538368	0.059538364	0	152767.16	152766.5	-8.6415814e-05	655776.06	236425.17	-0.00026072704	236427.83	655774.94	-0.00023092968
0	0.6371649	0.6371622	-1.6872591e-10	0.059396908	0.059396908	0	152737.55	152736.89	-4.1135205e-05	655871.2	236157	-6.70441e-05	236159.67	655870.1	-0.00017878426
0	0.63703954	0.6370368	5.3281862e-12	0.059255596	0.05925559	0	152707.47	152706.83	0	655967.3	235885.34	-2.2348033e-05	235888.03	655966.25	2.2348033e-05
0	0.63691485	0.63691217	-4.688804e-10	0.059114102	0.059114102	0	152677.58	152676.94	-0.00011352041	656062.8	235615.27	-0.0002849374	235617.94	656061.8	-0.0003761919
0	0.63678974	0.6367871	-3.2146724e-10	0.058972705	0.058972705	0	152647.62	152646.95	-7.573342e-05	656158.3	235344.64	-0.0002849374	235347.33	656157.3	-0.00014153754
0	0.6366642	0.63666147	-3.4455605e-10	0.05883125	0.058831252	0	152617.5	152616.88	-8.322704e-05	656254.2	235073.03	-0.00019740763	235075.72	656253.1	-0.00028679977
0	0.63653845	0.6365358	4.9729738e-11	0.0586899	0.0586899	0	152587.38	152586.7	3.8265307e-06	656349.94	234801.17	1.3036352e-05	234803.84	656348.9	4.4696066e-05
0	0.6364121	0.6364094	-1.8115834e-10	0.05854845	0.05854845	0	152557.06	152556.42	-4.846939e-05	656446.1	234528.11	-0.00012477652	234530.77	656445	-0.00016761025
0	0.6362862	0.6362835	-3.3034755e-10	0.058406986	0.058406994	0	152526.89	152526.23	-7.9081634e-05	656541.9	234256.14	-0.00010987783	234258.81	656540.7	-0.0003501192
0	0.6361592	0.63615644	-2.1490351e-10	0.05826565	0.05826565	0	152496.45	152495.8	-5.5165816e-05	656638	233982.16	-0.00014526222	233984.86	656636.9	-0.0001340882
0	0.63603264	0.6360298	-3.9073367e-10	0.058124106	0.058124106	0	152466.1	152465.44	-9.406888e-05	656733.7	233709.27	-0.0003724672	233711.98	656732.5	-0.00020858164
0	0.635905	0.6359023	-9.768342e-11	0.05798278	0.05798278	0	152435.52	152434.86	-1.7219389e-05	656829.6	233434.73	-7.076877e-05	233437.42	656828.5	-3.7246722e-05
0	0.6357771	0.6357744	-7.99228e-11	0.05784131	0.05784131	0	152404.86	152404.2	-1.9929847e-05	656925.9	233159.28	-0.00012291418	233162	656924.8	2.2348033e-05
0	0.6356492	0.6356464	-2.6463326e-10	0.057699848	0.057699848	0	152374.17	152373.52	-6.473214e-05	657021.94	232884.08	-0.00017133492	232886.78	657020.94	-0.00018995829
0	0.6355213	0.63551843	-4.2625492e-10	0.05755853	0.05755853	0	152343.5	152342.86	-0.00010427296	657117.94	232609	-0.00036501788	232611.69	657116.94	-0.000227205
0	0.63539237	0.6353897	9.235523e-11	0.05741706	0.05741706	0	152312.64	152311.97	2.3596938e-05	657214.3	232332.36	4.0971394e-05	232335.05	657213.1	0.00011918951
0	0.63526416	0.6352614	-2.797298e-10	0.057275645	0.057275645	0	152281.9	152281.25	-6.552933e-05	657310.25	232056.95	-0.00020858164	232059.66	657309.06	-0.00017878426
0	0.6351351	0.63513243	-1.03011606e-10	0.05713419	0.05713419	0	152250.97	152250.33	-2.7104592e-05	657406.4	231780.17	-0.0001285012	231782.9	657405.2	0
0	0.63500535	0.6350026	-2.2023171e-10	0.056992844	0.056992844	0	152219.86	152219.2	-4.432398e-05	657502.6	231502.1	-0.00011546484	231504.84	657501.6	-0.00013781287
0	0.63487566	0.6348729	-2.2378382e-10	0.056851387	0.056851387	0	152188.77	152188.11	-4.655612e-05	657599.06	231224.19	-0.00011918951	231226.9	657597.94	-0.00016016091
0	0.6347463	0.63474363	1.1366798e-10	0.056709927	0.056709927	0	152157.77	152157.11	2.4234694e-05	657694.75	230947.39	7.8218116e-05	230950.12	657693.75	9.6841475e-05
0	0.63461524	0.6346125	-2.113514e-10	0.056568585	0.056568585	0	152126.34	152125.69	-4.7672194e-05	657791.6	230667	-9.6841475e-05	230669.73	657790.5	-0.00016388558
0	0.6344844	0.63448167	-4.6976845e-10	0.056427047	0.056427047	0	152094.98	152094.33	-0.00011192602	657888.06	230387.44	-0.00034825684	230390.14	657886.94	-0.00029797378
0	0.63435334	0.63435066	-1.1899616e-10	0.05628571	0.05628571	0	152063.58	152062.9	-2.471301e-05	657984.44	230107.6	-4.4696066e-05	230110.34	657983.4	-0.00010429082
0	0.634222	0.6342193	-2.6285718e-10	0.05614425	0.05614425	0	152032.06	152031.4	-6.6007655e-05	658080.94	229827.11	-0.00019740763	229829.84	658079.9	-0.00019368295
0	0.63409007	0.6340874	-2.433205e-10	0.056002792	0.056002792	0	152000.44	151999.8	-6.154337e-05	658177.75	229545.6	-0.00012291418	229548.3	658176.7	-0.00023092968
0	0.6339584	0.63395566	-3.14363e-10	0.05586147	0.05586147	0	151968.89	151968.25	-7.589286e-05	658274	229265.03	-0.00027748808	229267.77	658273	-0.00015643623
0	0.6338261	0.63382334	-5.5057925e-10	0.055719994	0.055719994	0	151937.17	151936.52	-0.00013329081	658370.6	228983.17	-0.00039109058	228985.92	658369.44	-0.0004022646
0	0.6336932	0.63369054	-2.1756762e-10	0.055578664	0.055578664	0	151905.33	151904.66	-5.1339284e-05	658467.25	228700.52	-0.00019368295	228703.28	658466.2	-0.00014153754
0	0.6335599	0.6335571	-2.0424715e-10	0.055437125	0.055437125	0	151873.34	151872.67	-4.591837e-05	658564.2	228416.88	-0.00024210369	228419.61	658563	-4.8420738e-05
0	0.63342685	0.63342404	-2.3000005e-10	0.05529578	0.05529578	0	151841.45	151840.78	-5.580357e-05	658660.9	228133.92	-0.0002011323	228136.67	658659.7	-0.00012663886
0	0.63329357	0.63329077	-1.7405409e-10	0.055154327	0.055154327	0	151809.48	151808.83	-4.6875e-05	658757.2	227850.92	-4.65584e-05	227853.69	658756.06	-0.0002011323
0	0.63315856	0.6331559	-3.196912e-10	0.05501287	0.05501287	0	151777.17	151776.48	-7.9719386e-05	658854.56	227564.73	-0.00026445172	227567.48	658853.4	-0.00018250894
0	0.63302475	0.633022	-2.664093e-10	0.054871522	0.054871522	0	151745.08	151744.42	-6.5369895e-05	658951.1	227280.69	-0.0002514154	227283.44	658950.06	-0.00015271157
0	0.63289016	0.6328874	-2.601931e-10	0.05473008	0.05473008	0	151712.81	151712.16	-6.792092e-05	659048	226995.44	-0.00020578814	226998.22	659046.94	-0.00018995829
0	0.6327556	0.6327529	-9.590735e-11	0.05458865	0.05458865	0	151680.56	151679.89	-2.4553572e-05	659144.5	226710.48	-6.331943e-05	226713.25	659143.44	-7.076877e-05
0	0.63262004	0.6326173	4.830889e-10	0.054447185	0.054447185	0	151648.06	151647.39	0.000117984695	659241.5	226423.77	0.00010242849	226426.55	659240.4	0.00059594755
0	0.63248426	0.63248146	-2.0424715e-10	0.054305855	0.054305855	0	151615.52	151614.84	-5.2455358e-05	659338.5	226136.62	-0.00018250894	226139.42	659337.5	-0.00012291418
0	0.63234836	0.6323456	-1.918147e-10	0.054164406	0.054164406	0	151582.95	151582.3	-4.4961736e-05	659435.56	225849.44	-9.31168e-05	225852.23	659434.44	-0.00016388558
0	0.632212	0.63220924	-2.513128e-10	0.054022938	0.054022938	0	151550.25	151549.6	-5.4049746e-05	659532.5	225561.5	-0.00015457389	225564.25	659531.44	-0.0001862336
0	0.6320761	0.63207334	-1.2787647e-10	0.0538816	0.0538816	0	151517.69	151517.02	-3.4119897e-05	659629.06	225274.69	-0.00016388558	225277.48	659627.94	-4.8420738e-05
0	0.6319389	0.63193613	-1.3853285e-10	0.05374007	0.05374007	0	151484.8	151484.14	-3.1568878e-05	659726.25	224985.5	-4.283373e-05	224988.3	659725.2	-0.0001340882
0	0.63180095	0.6317982	-1.9270274e-10	0.05359871	0.05359871	0	151451.73	151451.06	-4.40051e-05	659823.6	224695	-0.00023092968	224697.8	659822.5	-4.0971394e-05
0	0.63166356	0.6316608	-2.9571434e-10	0.053457264	0.053457264	0	151418.78	151418.12	-7.1109695e-05	659920.5	224405.64	-0.00018250894	224408.4	659919.5	-0.000216031
0	0.6315262	0.6315234	-3.196912e-11	0.053315822	0.053315822	0	151385.84	151385.16	-1.2117347e-05	660017.6	224116.16	-8.380513e-05	224118.97	660016.5	3.7246722e-05
0	0.6313877	0.63138497	-4.7065647e-11	0.053174462	0.053174462	0	151352.66	151351.98	-8.928571e-06	660114.94	223825.1	4.0971394e-05	223827.88	660113.8	-0.00010429082
0	0.6312492	0.63124645	1.9536683e-11	0.053033024	0.053033024	0	151319.45	151318.8	6.0586735e-06	660212	223534.16	-5.214541e-05	223536.94	660210.9	6.331943e-05
0	0.6311097	0.631107	-2.6463326e-10	0.052891586	0.052891586	0	151286.02	151285.34	-7.047194e-05	660309.4	223241.48	-0.00027003873	223244.31	660308.2	-0.00011174017
0	0.6309713	0.6309685	1.0656373e-10	0.052750126	0.052750126	0	151252.83	151252.17	2.216199e-05	660406.2	222950.8	4.65584e-05	222953.61	660405.1	0.00011174017
0	0.6308304	0.63082767	-3.196912e-10	0.052608777	0.052608773	0	151219.05	151218.39	-7.3979594e-05	660504.2	222655.64	-0.00016202324	222658.45	660503	-0.00028679977
0	0.63069123	0.6306885	-1.10115854e-10	0.05246734	0.052467346	0	151185.7	151185.03	-2.5510204e-05	660601.1	222363.84	-7.263111e-05	222366.67	660600.06	-8.939213e-05
0	0.63055044	0.63054764	-4.2447884e-10	0.052325882	0.052325882	0	151151.95	151151.3	-0.00010060587	660698.56	222069.27	-0.0003445322	222072.06	660697.5	-0.00024210369
0	0.63041013	0.63040733	-3.4278e-10	0.05218454	0.05218454	0	151118.34	151117.66	-8.4821426e-05	660795.9	221775.64	-0.00025886472	221778.45	660794.7	-0.00023465435
0	0.63026875	0.6302661	-1.7050196e-10	0.052043002	0.052043002	0	151084.44	151083.77	-4.049745e-05	660893.2	221480.3	-5.5870085e-05	221483.1	660892.2	-0.00018250894
0	0.6301273	0.6301245	-4.084943e-10	0.051901635	0.051901635	0	151050.52	151049.84	-9.614158e-05	660990.7	221184.69	-0.00022348034	221187.53	660989.7	-0.00032777115
0	0.62998617	0.62998337	-6.5714295e-11	0.0517602	0.0517602	0	151016.67	151016.03	-2.072704e-05	661087.9	220889.92	3.7246723e-06	220892.77	661086.75	-0.0001080155
0	0.6298433	0.6298405	-3.9961398e-10	0.051618766	0.051618766	0	150982.44	150981.78	-9.630102e-05	661185.6	220592.16	-0.00023279201	220594.97	661184.6	-0.00035756853
0	0.62970155	0.6296987	-3.489962e-10	0.05147742	0.05147742	0	150948.44	150947.77	-8.354592e-05	661283	220296.2	-0.0003817789	220299.08	661281.94	-0.00010429082
0	0.6295585	0.62955576	-1.7760621e-10	0.05133596	0.05133596	0	150914.19	150913.5	-3.6192603e-05	661380.56	219998.58	-8.194279e-05	220001.42	661379.44	-0.00014526222
0	0.6294155	0.62941265	-1.0123554e-10	0.051194515	0.051194515	0	150879.88	150879.22	-2.614796e-05	661478.2	219700.62	-0.0001136025	219703.47	661477.06	-1.8623361e-05
0	0.6292717	0.6292688	-2.948263e-10	0.05105309	0.05105309	0	150845.39	150844.72	-7.079082e-05	661576	219401.42	-0.0001862336	219404.27	661575	-0.00023092968
0	0.62912804	0.62912524	-3.569885e-10	0.05091171	0.050911706	0	150810.97	150810.31	-8.944515e-05	661673.44	219102.94	-0.0002570024	219105.8	661672.4	-0.00026445172
0	0.6289839	0.62898123	-3.2679542e-10	0.05077028	0.05077028	0	150776.45	150775.78	-7.8443874e-05	661771	218803.83	-0.0002532777	218806.67	661769.9	-0.00026072704
0	0.6288394	0.6288366	-4.1648657e-10	0.050628845	0.050628845	0	150741.78	150741.12	-9.9330355e-05	661868.44	218503.83	-0.0002570024	218506.67	661867.3	-0.00035384388
0	0.6286936	0.6286908	-2.655213e-10	0.050487474	0.050487474	0	150706.83	150706.17	-6.3137755e-05	661966.6	218201.53	-0.00014526222	218204.39	661965.56	-0.0002532777
0	0.6285485	0.62854564	-2.113514e-10	0.050345946	0.050345946	0	150672.05	150671.39	-5.4049746e-05	662064.1	217900.89	-0.00011174017	217903.75	662063.06	-0.00020485697
0	0.62840366	0.6284008	1.15444035e-11	0.05020459	0.05020459	0	150637.34	150636.66	3.507653e-06	662161.7	217600.61	0.00012291418	217603.48	662160.56	-8.939213e-05
0	0.62825674	0.628254	-1.4208497e-10	0.050063137	0.050063137	0	150602.14	150601.45	-3.093112e-05	662259.8	217296.83	-0.0001285012	217299.69	662258.75	-4.4696066e-05
0	0.6281108	0.62810796	-8.1698856e-11	0.04992171	0.04992171	0	150567.12	150566.47	-1.945153e-05	662357.5	216994.75	-2.6072705e-05	216997.64	662356.4	-6.70441e-05
0	0.62796277	0.62796	-3.0370662e-10	0.049780354	0.049780354	0	150531.64	150530.97	-6.664541e-05	662455.7	216689.34	-0.0003668802	216692.23	662454.6	-2.2348033e-05
0	0.62781674	0.6278139	-3.321236e-10	0.0496389	0.049638905	0	150496.62	150495.95	-7.573342e-05	662553.1	216387.42	-0.00031845947	216390.28	662552.06	-0.00015643623
0	0.6276687	0.62766576	1.7760622e-12	0.049497455	0.049497455	0	150461.16	150460.48	4.145408e-06	662651.2	216082.02	-0.00011918951	216084.89	662650.2	0.00015643623
0	0.6275221	0.6275192	-3.43668e-10	0.04935602	0.04935602	0	150426	150425.33	-8.4821426e-05	662748.44	215779.62	-0.00022906734	215782.52	662747.3	-0.00024955304
0	0.6273736	0.6273708	3.99614e-11	0.04921464	0.04921464	0	150390.39	150389.72	5.580357e-06	662846.56	215473.55	-2.7935042e-05	215476.42	662845.44	7.8218116e-05
0	0.6272249	0.62722206	-1.598456e-10	0.04907321	0.04907321	0	150354.78	150354.1	-3.1568878e-05	662944.44	215167.58	-0.00014898689	215170.47	662943.3	-4.0971394e-05
0	0.62707585	0.627073	8.525098e-11	0.04893179	0.04893179	0	150319.06	150318.36	1.6581633e-05	663042.44	214860.86	-4.65584e-05	214863.77	663041.4	0.00015643623
0	0.6269272	0.62692434	6.482627e-11	0.048790418	0.048790418	0	150283.39	150282.7	1.690051e-05	663139.94	214555.12	1.3036352e-05	214558.06	663138.9	6.70441e-05
0	0.62677646	0.6267736	-9.9459475e-11	0.048648883	0.048648883	0	150247.27	150246.6	-2.1045918e-05	663238.25	214245.81	-0.000221618	214248.72	663237.2	8.566746e-05
0	0.62662697	0.6266241	-2.2467186e-10	0.04850753	0.04850753	0	150211.42	150210.75	-5.3890308e-05	663336	213938.9	-0.00019740763	213941.83	663334.9	-0.00013781287
0	0.6264756	0.6264727	-4.204827e-10	0.048366077	0.048366077	0	150175.14	150174.45	-0.00010012755	663434.5	213628.31	-0.0002532777	213631.2	663433.5	-0.00035384388
0	0.6263257	0.626323	-3.196912e-11	0.048224654	0.048224654	0	150139.23	150138.53	-1.0204081e-05	663532.25	213320.92	5.0283074e-05	213323.86	663531.1	-8.566746e-05
0	0.6261741	0.62617123	-2.3177611e-10	0.04808329	0.04808329	0	150102.88	150102.19	-5.1339284e-05	663630.44	213010.4	-0.00014526222	213013.33	663629.4	-0.0001862336
0	0.62602365	0.62602085	-3.0725875e-10	0.04794185	0.04794185	0	150066.81	150066.14	-7.1109695e-05	663727.75	212702.47	-0.00021975566	212705.39	663726.6	-0.0002011323
0	0.62587076	0.6258679	-3.3922787e-10	0.047800384	0.047800384	0	150030.17	150029.5	-7.8443874e-05	663826.4	212389.81	-0.00027562573	212392.72	663825.25	-0.00018995829
0	0.62571824	0.62571543	-1.03011606e-10	0.047658965	0.047658965	0	149993.6	149992.92	-3.4757653e-05	663924.8	212077.88	-0.0002011323	212080.81	663923.75	0
0	0.62556577	0.6255629	-1.1899616e-10	0.04751758	0.04751758	0	149957.05	149956.36	-3.0293368e-05	664022.7	211766.44	-0.0001340882	211769.36	664021.56	-6.70441e-05
0	0.6254129	0.6254101	-2.5042476e-10	0.047376156	0.047376156	0	149920.4	149919.72	-5.5484696e-05	664120.5	211454.56	-0.00013595054	211457.52	664119.56	-0.00021230632
0	0.625259	0.6252561	-3.578765e-10	0.047234733	0.047234733	0	149883.5	149882.83	-8.163265e-05	664218.75	211140.84	-0.00024210369	211143.8	664217.75	-0.000227205
0	0.625106	0.6251031	-2.9038616e-10	0.047093347	0.047093347	0	149846.84	149846.14	-6.951531e-05	664316.6	210828.84	-0.00025886472	210831.77	664315.56	-0.00012291418
0	0.624951	0.6249482	-4.1559853e-10	0.046951823	0.046951823	0	149809.69	149809	-9.7895405e-05	664415	210513.45	-0.00036874256	210516.36	664414	-0.000216031
0	0.6247966	0.6247938	-4.5822401e-10	0.046810463	0.046810463	0	149772.69	149771.98	-0.000107780616	664513.1	210199.22	-0.00028121276	210202.17	664512.06	-0.00035384388
0	0.62464106	0.6246382	-8.4362954e-11	0.04666902	0.046669025	0	149735.38	149734.69	-1.4668367e-05	664611.7	209882.83	-9.6841475e-05	209885.75	664610.56	2.6072705e-05
0	0.6244862	0.62448335	-1.9891895e-10	0.046527658	0.046527658	0	149698.27	149697.6	-4.9107144e-05	664709.56	209568.22	-3.7246722e-05	209571.16	664708.5	-0.00023465435
0	0.6243304	0.62432754	2.1312745e-11	0.046386234	0.046386234	0	149660.9	149660.22	1.5943878e-06	664807.75	209251.83	5.5870085e-05	209254.78	664806.75	-5.214541e-05
0	0.62417406	0.6241712	-3.4810818e-10	0.0462448	0.0462448	0	149623.44	149622.75	-7.860332e-05	664906.1	208934.55	-0.00027562573	208937.48	664905.06	-0.00018250894
0	0.6240166	0.6240137	-2.1312745e-11	0.04610342	0.04610342	0	149585.69	149585.02	-5.739796e-06	665004.7	208615.56	-0.00010056615	208618.52	665003.7	6.331943e-05
0	0.6238607	0.6238578	-5.337067e-10	0.045961898	0.045961898	0	149548.31	149547.64	-0.00012978316	665102.4	208299.61	-0.0004283373	208302.53	665101.44	-0.00034639452
0	0.6237033	0.62370044	-4.4135143e-10	0.045820512	0.045820512	0	149510.6	149509.92	-0.00010698342	665200.6	207981.03	-0.00036874256	207984	665199.6	-0.0002681764
0	0.6235444	0.6235416	-3.2501937e-10	0.045679096	0.045679096	0	149472.5	149471.81	-7.158801e-05	665299.4	207659.89	-0.00018250894	207662.88	665298.4	-0.00023837903
0	0.6233869	0.62338406	-2.3310814e-10	0.045537677	0.045537677	0	149434.77	149434.08	-5.5006378e-05	665397.5	207341.2	-0.00016202324	207344.16	665396.5	-0.00017133492
0	0.6232282	0.62322533	-3.694209e-10	0.045396283	0.045396283	0	149396.72	149396.02	-8.928571e-05	665495.75	207020.8	-0.00032404647	207023.77	665494.7	-0.00019368295
0	0.6230692	0.62306637	-4.4934373e-10	0.04525487	0.04525487	0	149358.6	149357.9	-0.00011160714	665594.1	206699.84	-0.00026445172	206702.83	665593.06	-0.0003724672
0	0.6229097	0.6229068	-5.5057927e-11	0.045113385	0.045113385	0	149320.36	149319.67	-1.4190051e-05	665692.44	206378.17	7.4493446e-06	206381.14	665691.44	-8.566746e-05